<?xml version="1.0"?>
<VTKFile type="RectilinearGrid">
<RectilinearGrid WholeExtent="0 100 0 0 0 0">
<Piece Extent="0 100 0 0 0 0">
<Coordinates>
<DataArray type="Float32" format="ascii">
0
10
20
30
40
50
60
70
80
90
100
110
120
130
140
150
160
170
180
190
200
210
220
230
240
250
260
270
280
290
300
310
320
330
340
350
360
370
380
390
400
410
420
430
440
450
460
470
480
490
500
510
520
530
540
550
560
570
580
590
600
610
620
630
640
650
660
670
680
690
700
710
720
730
740
750
760
770
780
790
800
810
820
830
840
850
860
870
880
890
900
910
920
930
940
950
960
970
980
990
1000
</DataArray>
<DataArray type="Float32" format="ascii">
0
</DataArray>
<DataArray type="Float32" format="ascii">
0
</DataArray>
</Coordinates>
<CellData>
<DataArray Name="h" type="Float32" format="ascii">
7.20597
7.20621
7.20675
7.2076
7.20878
7.21028
7.2121
7.21424
7.21671
7.2195
7.22262
7.22605
7.2298
7.23388
7.23828
7.243
7.24804
7.2534
7.25907
7.26506
7.27136
7.27797
7.28489
7.29211
7.29964
7.30747
7.3156
7.32403
7.33275
7.34175
7.35105
7.36064
7.37049
7.38063
7.39104
7.40172
7.41267
7.42387
7.43534
7.44705
7.45902
7.47124
7.48369
7.49639
7.50932
7.52249
7.53589
7.54953
7.5634
7.5775
7.59183
7.60641
7.62122
7.63627
7.65158
7.66714
7.68297
7.69907
7.71546
7.73215
7.74915
7.76648
7.78415
7.80218
7.82059
7.83939
7.8586
7.87821
7.89825
7.9187
7.93956
7.9608
7.98239
8.00424
8.02622
8.04811
8.0695
8.08965
8.10717
8.11933
8.12064
8.09966
8.03247
7.86973
7.517
6.83134
5.73118
4.49226
3.64274
3.27197
3.14661
3.10681
3.09304
3.08705
3.08353
3.08096
3.07893
3.07736
3.07626
3.07569
</DataArray>
<DataArray Name="hu" type="Float32" format="ascii">
0.487974
1.46434
2.44111
3.41781
4.39441
5.3709
6.34725
7.32341
8.29937
9.27511
10.2506
11.2257
12.2004
13.1747
14.1486
15.122
16.0948
17.0669
18.0384
19.0092
19.9791
20.9481
21.9161
22.8831
23.8489
24.8135
25.7768
26.7386
27.6988
28.6574
29.6143
30.5692
31.5221
32.4727
33.4211
34.3669
35.3101
36.2504
37.1876
38.1216
39.0521
39.9789
40.9017
41.8204
42.7346
43.644
44.5484
45.4474
46.3407
47.228
48.1088
48.9828
49.8495
50.7086
51.5595
52.4019
53.2351
54.0587
54.8722
55.6749
56.4664
57.246
58.0131
58.7672
59.5076
60.2337
60.945
61.6409
62.3208
62.9843
63.6306
64.2593
64.8695
65.4599
66.029
66.5733
67.0869
67.5578
67.9623
68.2516
68.3246
67.9682
66.7365
63.73
57.351
45.6903
29.1667
13.6238
4.785
1.4776
0.466576
0.168501
0.0755515
0.0419496
0.0264664
0.0173322
0.0111026
0.00665264
0.00344816
0.00105069
</DataArray>
<DataArray Name="B" type="Float32" format="ascii">
-20.8
-20.6
-20.4
-20.2
-20
-19.8
-19.6
-19.4
-19.2
-19
-18.8
-18.6
-18.4
-18.2
-18
-17.8
-17.6
-17.4
-17.2
-17
-16.8
-16.6
-16.4
-16.2
-16
-15.8
-15.6
-15.4
-15.2
-15
-14.8
-14.6
-14.4
-14.2
-14
-13.8
-13.6
-13.4
-13.2
-13
-12.8
-12.6
-12.4
-12.2
-12
-11.8
-11.6
-11.4
-11.2
-11
-10.8
-10.6
-10.4
-10.2
-10
-9.8
-9.6
-9.4
-9.2
-9
-8.8
-8.6
-8.4
-8.2
-8
-7.8
-7.6
-7.4
-7.2
-7
-6.8
-6.6
-6.4
-6.2
-6
-5.8
-5.6
-5.4
-5.2
-5
-4.8
-4.6
-4.4
-4.2
-4
-3.8
-3.6
-3.4
-3.2
-3
-2.8
-2.6
-2.4
-2.2
-2
-1.8
-1.6
-1.4
-1.2
-1
</DataArray>
</CellData>
</Piece>
</RectilinearGrid>
</VTKFile>
