<?xml version="1.0"?>
<VTKFile type="RectilinearGrid">
<RectilinearGrid WholeExtent="0 100 0 0 0 0">
<Piece Extent="0 100 0 0 0 0">
<Coordinates>
<DataArray type="Float32" format="ascii">
0
10
20
30
40
50
60
70
80
90
100
110
120
130
140
150
160
170
180
190
200
210
220
230
240
250
260
270
280
290
300
310
320
330
340
350
360
370
380
390
400
410
420
430
440
450
460
470
480
490
500
510
520
530
540
550
560
570
580
590
600
610
620
630
640
650
660
670
680
690
700
710
720
730
740
750
760
770
780
790
800
810
820
830
840
850
860
870
880
890
900
910
920
930
940
950
960
970
980
990
1000
</DataArray>
<DataArray type="Float32" format="ascii">
0
</DataArray>
<DataArray type="Float32" format="ascii">
0
</DataArray>
</Coordinates>
<CellData>
<DataArray Name="h" type="Float32" format="ascii">
7.09569
7.09593
7.09647
7.09734
7.09853
7.10004
7.10188
7.10405
7.10654
7.10936
7.11251
7.11598
7.11978
7.12391
7.12836
7.13314
7.13825
7.14368
7.14943
7.1555
7.1619
7.16861
7.17564
7.18299
7.19065
7.19863
7.20691
7.2155
7.2244
7.2336
7.2431
7.2529
7.263
7.27339
7.28407
7.29504
7.30629
7.31783
7.32964
7.34173
7.3541
7.36674
7.37965
7.39283
7.40628
7.42
7.43399
7.44824
7.46277
7.47757
7.49265
7.50801
7.52366
7.5396
7.55585
7.5724
7.58928
7.60649
7.62405
7.64197
7.66027
7.67895
7.69805
7.71757
7.73753
7.75794
7.77881
7.80015
7.82196
7.84424
7.86697
7.89013
7.9137
7.9376
7.96177
7.98607
8.0103
8.03415
8.05709
8.07817
8.09559
8.1058
8.10154
8.0676
7.97193
7.74903
7.27965
6.41376
5.17354
4.03192
3.41266
3.18622
3.1163
3.09445
3.0864
3.08245
3.07993
3.07814
3.07692
3.07629
</DataArray>
<DataArray Name="hu" type="Float32" format="ascii">
0.479087
1.4377
2.39673
3.3557
4.31458
5.27335
6.23198
7.19048
8.14879
9.10688
10.0647
11.0222
11.9793
12.9361
13.8925
14.8483
15.8037
16.7585
17.7126
18.6661
19.6187
20.5706
21.5215
22.4714
23.4202
24.3679
25.3143
26.2593
27.2029
28.1449
29.0852
30.0237
30.9603
31.8947
32.827
33.7568
34.6841
35.6087
36.5304
37.4489
38.3641
39.2758
40.1837
41.0876
41.9872
42.8823
43.7725
44.6575
45.5371
46.4108
47.2784
48.1393
48.9934
49.84
50.6788
51.5094
52.3312
53.1438
53.9467
54.7393
55.5212
56.2917
57.0503
57.7966
58.5299
59.2497
59.9556
60.6471
61.3237
61.9851
62.6308
63.2604
63.8736
64.4699
65.0487
65.609
66.1487
66.6641
67.1477
67.5843
67.9429
68.1592
68.0979
67.4722
65.6813
61.5435
53.1441
38.9509
21.6192
8.54849
2.66447
0.788784
0.256893
0.10336
0.0536454
0.0333211
0.0220876
0.0142296
0.00797214
0.00256241
</DataArray>
<DataArray Name="B" type="Float32" format="ascii">
-20.8
-20.6
-20.4
-20.2
-20
-19.8
-19.6
-19.4
-19.2
-19
-18.8
-18.6
-18.4
-18.2
-18
-17.8
-17.6
-17.4
-17.2
-17
-16.8
-16.6
-16.4
-16.2
-16
-15.8
-15.6
-15.4
-15.2
-15
-14.8
-14.6
-14.4
-14.2
-14
-13.8
-13.6
-13.4
-13.2
-13
-12.8
-12.6
-12.4
-12.2
-12
-11.8
-11.6
-11.4
-11.2
-11
-10.8
-10.6
-10.4
-10.2
-10
-9.8
-9.6
-9.4
-9.2
-9
-8.8
-8.6
-8.4
-8.2
-8
-7.8
-7.6
-7.4
-7.2
-7
-6.8
-6.6
-6.4
-6.2
-6
-5.8
-5.6
-5.4
-5.2
-5
-4.8
-4.6
-4.4
-4.2
-4
-3.8
-3.6
-3.4
-3.2
-3
-2.8
-2.6
-2.4
-2.2
-2
-1.8
-1.6
-1.4
-1.2
-1
</DataArray>
</CellData>
</Piece>
</RectilinearGrid>
</VTKFile>
