<?xml version="1.0"?>
<VTKFile type="RectilinearGrid">
<RectilinearGrid WholeExtent="0 100 0 0 0 0">
<Piece Extent="0 100 0 0 0 0">
<Coordinates>
<DataArray type="Float32" format="ascii">
0
10
20
30
40
50
60
70
80
90
100
110
120
130
140
150
160
170
180
190
200
210
220
230
240
250
260
270
280
290
300
310
320
330
340
350
360
370
380
390
400
410
420
430
440
450
460
470
480
490
500
510
520
530
540
550
560
570
580
590
600
610
620
630
640
650
660
670
680
690
700
710
720
730
740
750
760
770
780
790
800
810
820
830
840
850
860
870
880
890
900
910
920
930
940
950
960
970
980
990
1000
</DataArray>
<DataArray type="Float32" format="ascii">
0
</DataArray>
<DataArray type="Float32" format="ascii">
0
</DataArray>
</Coordinates>
<CellData>
<DataArray Name="h" type="Float32" format="ascii">
5.62941
5.65589
5.70898
5.78822
5.89242
6.01979
6.1679
6.33366
6.51343
6.7032
6.89878
7.09604
7.29108
7.48042
7.66101
7.83032
7.98631
8.12743
8.25263
8.36138
8.4537
8.53011
8.59167
8.63984
8.6764
8.70327
8.72239
8.73558
8.7444
8.75015
8.75384
8.75619
8.75771
8.75873
8.75947
8.76004
8.76053
8.76096
8.76137
8.76175
8.76212
8.76248
8.76282
8.76315
8.76347
8.76377
8.76406
8.76434
8.76459
8.76483
8.76505
8.76525
8.76542
8.76557
8.7657
8.76579
8.76584
8.76586
8.76582
8.7657
8.76547
8.76501
8.76413
8.76231
8.7585
8.75039
8.73306
8.69632
8.61932
8.46134
8.14951
7.57896
6.67579
5.5596
4.58224
3.98371
3.70507
3.59624
3.55978
3.55144
3.55352
3.55917
3.56564
3.57178
3.57708
3.58133
3.58453
3.58677
3.58823
3.5891
3.58955
3.58975
3.5898
3.58978
3.58973
3.58967
3.58961
3.58957
3.58953
3.58951
</DataArray>
<DataArray Name="hu" type="Float32" format="ascii">
2.6468
7.92403
13.1471
18.2779
23.2868
28.1505
32.8541
37.3896
41.755
45.9512
49.9794
53.8374
57.5184
61.0092
64.2913
67.3423
70.1381
72.6562
74.8785
76.7938
78.4
79.705
80.7269
81.4927
82.0355
82.3924
82.6006
82.695
82.706
82.6586
82.572
82.4603
82.3333
82.1973
82.0562
81.9124
81.7673
81.6215
81.4754
81.3292
81.1831
81.0369
80.8907
80.7446
80.5985
80.4525
80.3064
80.1604
80.0144
79.8684
79.7224
79.5764
79.4304
79.2843
79.1381
78.9918
78.8454
78.6987
78.5517
78.4039
78.2546
78.1021
77.942
77.7651
77.5509
77.2556
76.7865
75.9515
74.3645
71.289
65.4828
55.4198
40.7462
24.5791
12.1135
5.26947
2.27464
1.08265
0.602878
0.38639
0.26581
0.182135
0.116082
0.0622415
0.0194615
-0.012652
-0.0348648
-0.0485042
-0.0552776
-0.0569711
-0.0552039
-0.0512791
-0.0461258
-0.040341
-0.0342663
-0.028077
-0.0218516
-0.0156166
-0.00938344
-0.0031344
</DataArray>
<DataArray Name="B" type="Float32" format="ascii">
-20.8
-20.6
-20.4
-20.2
-20
-19.8
-19.6
-19.4
-19.2
-19
-18.8
-18.6
-18.4
-18.2
-18
-17.8
-17.6
-17.4
-17.2
-17
-16.8
-16.6
-16.4
-16.2
-16
-15.8
-15.6
-15.4
-15.2
-15
-14.8
-14.6
-14.4
-14.2
-14
-13.8
-13.6
-13.4
-13.2
-13
-12.8
-12.6
-12.4
-12.2
-12
-11.8
-11.6
-11.4
-11.2
-11
-10.8
-10.6
-10.4
-10.2
-10
-9.8
-9.6
-9.4
-9.2
-9
-8.8
-8.6
-8.4
-8.2
-8
-7.8
-7.6
-7.4
-7.2
-7
-6.8
-6.6
-6.4
-6.2
-6
-5.8
-5.6
-5.4
-5.2
-5
-4.8
-4.6
-4.4
-4.2
-4
-3.8
-3.6
-3.4
-3.2
-3
-2.8
-2.6
-2.4
-2.2
-2
-1.8
-1.6
-1.4
-1.2
-1
</DataArray>
</CellData>
</Piece>
</RectilinearGrid>
</VTKFile>
