<?xml version="1.0"?>
<VTKFile type="RectilinearGrid">
<RectilinearGrid WholeExtent="0 100 0 0 0 0">
<Piece Extent="0 100 0 0 0 0">
<Coordinates>
<DataArray type="Float32" format="ascii">
0
10
20
30
40
50
60
70
80
90
100
110
120
130
140
150
160
170
180
190
200
210
220
230
240
250
260
270
280
290
300
310
320
330
340
350
360
370
380
390
400
410
420
430
440
450
460
470
480
490
500
510
520
530
540
550
560
570
580
590
600
610
620
630
640
650
660
670
680
690
700
710
720
730
740
750
760
770
780
790
800
810
820
830
840
850
860
870
880
890
900
910
920
930
940
950
960
970
980
990
1000
</DataArray>
<DataArray type="Float32" format="ascii">
0
</DataArray>
<DataArray type="Float32" format="ascii">
0
</DataArray>
</Coordinates>
<CellData>
<DataArray Name="h" type="Float32" format="ascii">
4.6496
4.64997
4.65073
4.65192
4.65355
4.65561
4.6581
4.66105
4.66445
4.66832
4.67266
4.67747
4.68277
4.68857
4.69486
4.70167
4.709
4.71685
4.72525
4.73419
4.74368
4.75375
4.76438
4.7756
4.78741
4.79983
4.81285
4.82649
4.84075
4.85565
4.87118
4.88736
4.90418
4.92165
4.93978
4.95857
4.978
4.99809
5.01882
5.04021
5.06223
5.08488
5.10815
5.13202
5.1565
5.18155
5.20716
5.23332
5.26001
5.2872
5.31486
5.34299
5.37155
5.40052
5.42986
5.45957
5.4896
5.51993
5.55053
5.58138
5.61245
5.64373
5.67523
5.70699
5.73921
5.77244
5.80812
5.85003
5.90781
6.00566
6.20041
6.60577
7.37278
8.52731
9.79683
10.8136
11.4498
11.7933
11.9682
12.0582
12.1079
12.1389
12.161
12.1789
12.1945
12.2089
12.2224
12.2352
12.2473
12.2586
12.2692
12.2791
12.2881
12.2962
12.3033
12.3094
12.3143
12.3181
12.3205
12.3217
</DataArray>
<DataArray Name="hu" type="Float32" format="ascii">
0.254364
0.76331
1.27243
1.78141
2.29015
2.79861
3.30674
3.81444
4.32164
4.82829
5.33428
5.83954
6.34403
6.84766
7.35035
7.85202
8.3526
8.85201
9.35018
9.84703
10.3425
10.8365
11.329
11.8199
12.3092
12.7968
13.2827
13.7668
14.2491
14.7296
15.2083
15.6851
16.1601
16.6334
17.1049
17.5747
18.0429
18.5096
18.9748
19.4387
19.9014
20.3631
20.8239
21.284
21.7436
22.2029
22.6621
23.1215
23.5812
24.0414
24.5025
24.9647
25.4281
25.893
26.3597
26.8282
27.2989
27.7719
28.2474
28.7254
29.2062
29.6897
30.1758
30.6636
31.1512
31.6335
32.0973
32.5091
32.7838
32.7086
31.7699
28.8489
22.1222
10.4572
-3.83128
-15.9892
-23.4845
-26.9459
-27.9538
-27.6987
-26.8404
-25.702
-24.4339
-23.1046
-21.7453
-20.3703
-18.986
-17.5956
-16.2007
-14.8022
-13.4007
-11.9966
-10.5902
-9.18197
-7.77213
-6.36101
-4.94892
-3.5361
-2.12285
-0.708077
</DataArray>
<DataArray Name="B" type="Float32" format="ascii">
-20.8
-20.6
-20.4
-20.2
-20
-19.8
-19.6
-19.4
-19.2
-19
-18.8
-18.6
-18.4
-18.2
-18
-17.8
-17.6
-17.4
-17.2
-17
-16.8
-16.6
-16.4
-16.2
-16
-15.8
-15.6
-15.4
-15.2
-15
-14.8
-14.6
-14.4
-14.2
-14
-13.8
-13.6
-13.4
-13.2
-13
-12.8
-12.6
-12.4
-12.2
-12
-11.8
-11.6
-11.4
-11.2
-11
-10.8
-10.6
-10.4
-10.2
-10
-9.8
-9.6
-9.4
-9.2
-9
-8.8
-8.6
-8.4
-8.2
-8
-7.8
-7.6
-7.4
-7.2
-7
-6.8
-6.6
-6.4
-6.2
-6
-5.8
-5.6
-5.4
-5.2
-5
-4.8
-4.6
-4.4
-4.2
-4
-3.8
-3.6
-3.4
-3.2
-3
-2.8
-2.6
-2.4
-2.2
-2
-1.8
-1.6
-1.4
-1.2
-1
</DataArray>
</CellData>
</Piece>
</RectilinearGrid>
</VTKFile>
