<?xml version="1.0"?>
<VTKFile type="RectilinearGrid">
<RectilinearGrid WholeExtent="0 100 0 0 0 0">
<Piece Extent="0 100 0 0 0 0">
<Coordinates>
<DataArray type="Float32" format="ascii">
0
10
20
30
40
50
60
70
80
90
100
110
120
130
140
150
160
170
180
190
200
210
220
230
240
250
260
270
280
290
300
310
320
330
340
350
360
370
380
390
400
410
420
430
440
450
460
470
480
490
500
510
520
530
540
550
560
570
580
590
600
610
620
630
640
650
660
670
680
690
700
710
720
730
740
750
760
770
780
790
800
810
820
830
840
850
860
870
880
890
900
910
920
930
940
950
960
970
980
990
1000
</DataArray>
<DataArray type="Float32" format="ascii">
0
</DataArray>
<DataArray type="Float32" format="ascii">
0
</DataArray>
</Coordinates>
<CellData>
<DataArray Name="h" type="Float32" format="ascii">
3.85383
3.85379
3.85371
3.85358
3.85341
3.8532
3.85294
3.85263
3.85228
3.85188
3.85143
3.85095
3.85044
3.84993
3.84946
3.84909
3.84891
3.84907
3.84978
3.85132
3.85407
3.85852
3.86528
3.87506
3.88869
3.90708
3.93114
3.9618
3.99991
4.04619
4.10121
4.16535
4.23877
4.32142
4.41309
4.51336
4.62173
4.73756
4.86019
4.9889
5.12296
5.26167
5.40432
5.55027
5.69888
5.84958
6.00181
6.15505
6.30882
6.46264
6.61607
6.76866
6.91995
7.06951
7.21689
7.3616
7.50316
7.64108
7.77486
7.90397
8.02792
8.14622
8.25838
8.36399
8.46266
8.55406
8.63795
8.71416
8.78263
8.84337
8.89651
8.9423
8.98104
9.01315
9.03912
9.05948
9.07479
9.08563
9.09256
9.09613
9.09682
9.09507
9.09124
9.08563
9.0785
9.07008
9.06082
9.05198
9.04812
9.06579
9.16237
9.51314
10.4876
12.303
14.3491
15.7975
16.5315
16.8359
16.9479
16.9831
</DataArray>
<DataArray Name="hu" type="Float32" format="ascii">
0.00259003
0.00775426
0.0128913
0.0180017
0.0230501
0.0280185
0.0329125
0.0376998
0.042372
0.0469514
0.0515034
0.0561353
0.0610391
0.066577
0.073302
0.0821187
0.0944421
0.112315
0.138659
0.177493
0.234112
0.315291
0.429347
0.586126
0.796777
1.07335
1.42833
1.87393
2.42144
3.0806
3.85902
4.76187
5.79173
6.94861
8.23021
9.63218
11.1486
12.7722
14.4949
16.3082
18.2031
20.1708
22.2023
24.289
26.4225
28.5944
30.7969
33.0222
35.263
37.512
39.7621
42.0063
44.2379
46.4501
48.6364
50.79
52.9044
54.9728
56.9886
58.9447
60.8342
62.6501
64.3853
66.0329
67.5861
69.0388
70.3854
71.6213
72.7432
73.7493
74.6395
75.4156
76.0811
76.6416
77.1043
77.4777
77.7712
77.9951
78.1595
78.2745
78.3495
78.393
78.4126
78.4146
78.4043
78.3857
78.3604
78.3244
78.2554
78.067
77.4484
75.3162
68.5449
52.9963
31.8638
14.8794
5.69511
1.85286
0.50368
0.0916185
</DataArray>
<DataArray Name="B" type="Float32" format="ascii">
-20.8
-20.6
-20.4
-20.2
-20
-19.8
-19.6
-19.4
-19.2
-19
-18.8
-18.6
-18.4
-18.2
-18
-17.8
-17.6
-17.4
-17.2
-17
-16.8
-16.6
-16.4
-16.2
-16
-15.8
-15.6
-15.4
-15.2
-15
-14.8
-14.6
-14.4
-14.2
-14
-13.8
-13.6
-13.4
-13.2
-13
-12.8
-12.6
-12.4
-12.2
-12
-11.8
-11.6
-11.4
-11.2
-11
-10.8
-10.6
-10.4
-10.2
-10
-9.8
-9.6
-9.4
-9.2
-9
-8.8
-8.6
-8.4
-8.2
-8
-7.8
-7.6
-7.4
-7.2
-7
-6.8
-6.6
-6.4
-6.2
-6
-5.8
-5.6
-5.4
-5.2
-5
-4.8
-4.6
-4.4
-4.2
-4
-3.8
-3.6
-3.4
-3.2
-3
-2.8
-2.6
-2.4
-2.2
-2
-1.8
-1.6
-1.4
-1.2
-1
</DataArray>
</CellData>
</Piece>
</RectilinearGrid>
</VTKFile>
