<?xml version="1.0"?>
<VTKFile type="RectilinearGrid">
<RectilinearGrid WholeExtent="0 100 0 0 0 0">
<Piece Extent="0 100 0 0 0 0">
<Coordinates>
<DataArray type="Float32" format="ascii">
0
10
20
30
40
50
60
70
80
90
100
110
120
130
140
150
160
170
180
190
200
210
220
230
240
250
260
270
280
290
300
310
320
330
340
350
360
370
380
390
400
410
420
430
440
450
460
470
480
490
500
510
520
530
540
550
560
570
580
590
600
610
620
630
640
650
660
670
680
690
700
710
720
730
740
750
760
770
780
790
800
810
820
830
840
850
860
870
880
890
900
910
920
930
940
950
960
970
980
990
1000
</DataArray>
<DataArray type="Float32" format="ascii">
0
</DataArray>
<DataArray type="Float32" format="ascii">
0
</DataArray>
</Coordinates>
<CellData>
<DataArray Name="h" type="Float32" format="ascii">
4.06209
4.08145
4.12024
4.17824
4.25489
4.34936
4.46061
4.58742
4.72841
4.88213
5.04705
5.22164
5.40433
5.59359
5.78791
5.98579
6.18579
6.38647
6.58645
6.78435
6.9788
7.16848
7.35205
7.52823
7.69575
7.85343
8.00016
8.135
8.25716
8.36612
8.4616
8.54369
8.61278
8.66962
8.71525
8.75093
8.77809
8.79819
8.81264
8.82275
8.82963
8.83419
8.83717
8.83907
8.8403
8.84109
8.84162
8.842
8.84227
8.84249
8.84267
8.84281
8.84293
8.84302
8.84308
8.84312
8.84312
8.84311
8.84308
8.84304
8.84302
8.84304
8.84313
8.84336
8.8438
8.84453
8.84569
8.84736
8.84966
8.8526
8.85603
8.85948
8.8618
8.86052
8.85037
8.82044
8.74816
8.58825
8.25681
7.62891
6.61899
5.40203
4.42695
3.90677
3.69697
3.62326
3.59873
3.5907
3.58808
3.58719
3.58686
3.5867
3.58659
3.58651
3.58643
3.58637
3.58632
3.58627
3.58624
3.58622
</DataArray>
<DataArray Name="hu" type="Float32" format="ascii">
0.578924
1.76068
3.01111
4.37002
5.87151
7.54156
9.39733
11.4473
13.6921
16.1257
18.7367
21.5101
24.4279
27.4703
30.6165
33.8447
37.1328
40.4579
43.7968
47.1257
50.4203
53.6557
56.8065
59.8469
62.7515
65.495
68.0538
70.4065
72.5349
74.4254
76.0701
77.4673
78.6226
79.5483
80.2628
80.7896
81.1553
81.3873
81.5129
81.5564
81.5393
81.479
81.389
81.2794
81.1575
81.028
80.894
80.7576
80.6199
80.4816
80.3431
80.2047
80.0663
79.9281
79.7901
79.6523
79.5147
79.3773
79.24
79.1026
78.9649
78.8268
78.6877
78.5473
78.4048
78.2592
78.1094
77.9539
77.7907
77.6168
77.4272
77.2119
76.9505
76.5991
76.0641
75.147
73.4352
70.113
63.7582
52.6081
36.4967
19.7254
8.24298
2.88631
0.908352
0.244491
0.0294062
-0.0376154
-0.0559068
-0.0580544
-0.0548141
-0.0497733
-0.0441355
-0.0383075
-0.0324279
-0.0265371
-0.0206442
-0.014752
-0.00886326
-0.0029599
</DataArray>
<DataArray Name="B" type="Float32" format="ascii">
-20.8
-20.6
-20.4
-20.2
-20
-19.8
-19.6
-19.4
-19.2
-19
-18.8
-18.6
-18.4
-18.2
-18
-17.8
-17.6
-17.4
-17.2
-17
-16.8
-16.6
-16.4
-16.2
-16
-15.8
-15.6
-15.4
-15.2
-15
-14.8
-14.6
-14.4
-14.2
-14
-13.8
-13.6
-13.4
-13.2
-13
-12.8
-12.6
-12.4
-12.2
-12
-11.8
-11.6
-11.4
-11.2
-11
-10.8
-10.6
-10.4
-10.2
-10
-9.8
-9.6
-9.4
-9.2
-9
-8.8
-8.6
-8.4
-8.2
-8
-7.8
-7.6
-7.4
-7.2
-7
-6.8
-6.6
-6.4
-6.2
-6
-5.8
-5.6
-5.4
-5.2
-5
-4.8
-4.6
-4.4
-4.2
-4
-3.8
-3.6
-3.4
-3.2
-3
-2.8
-2.6
-2.4
-2.2
-2
-1.8
-1.6
-1.4
-1.2
-1
</DataArray>
</CellData>
</Piece>
</RectilinearGrid>
</VTKFile>
