<?xml version="1.0"?>
<VTKFile type="RectilinearGrid">
<RectilinearGrid WholeExtent="0 100 0 0 0 0">
<Piece Extent="0 100 0 0 0 0">
<Coordinates>
<DataArray type="Float32" format="ascii">
0
10
20
30
40
50
60
70
80
90
100
110
120
130
140
150
160
170
180
190
200
210
220
230
240
250
260
270
280
290
300
310
320
330
340
350
360
370
380
390
400
410
420
430
440
450
460
470
480
490
500
510
520
530
540
550
560
570
580
590
600
610
620
630
640
650
660
670
680
690
700
710
720
730
740
750
760
770
780
790
800
810
820
830
840
850
860
870
880
890
900
910
920
930
940
950
960
970
980
990
1000
</DataArray>
<DataArray type="Float32" format="ascii">
0
</DataArray>
<DataArray type="Float32" format="ascii">
0
</DataArray>
</Coordinates>
<CellData>
<DataArray Name="h" type="Float32" format="ascii">
8.27291
8.27311
8.27355
8.27428
8.27528
8.27656
8.27812
8.27995
8.28204
8.28441
8.28704
8.28993
8.29308
8.29648
8.30013
8.30403
8.30817
8.31255
8.31715
8.32198
8.32702
8.33228
8.33773
8.34337
8.3492
8.3552
8.36137
8.36769
8.37415
8.38074
8.38746
8.39428
8.4012
8.40819
8.41525
8.42236
8.42951
8.43667
8.44384
8.45098
8.45809
8.46515
8.47213
8.47901
8.48577
8.4924
8.49886
8.50515
8.51122
8.51706
8.52265
8.52796
8.53296
8.53764
8.54197
8.54592
8.54945
8.55254
8.55513
8.55712
8.55837
8.55861
8.55734
8.5536
8.54553
8.52949
8.49827
8.43748
8.3189
8.08959
7.66232
6.93637
5.90796
4.81865
4.00698
3.56015
3.35331
3.26081
3.21587
3.19008
3.17228
3.15819
3.14617
3.1356
3.12625
3.118
3.11082
3.10465
3.09944
3.09511
3.09159
3.08879
3.08662
3.08498
3.08378
3.08292
3.08234
3.08196
3.08172
3.08161
</DataArray>
<DataArray Name="hu" type="Float32" format="ascii">
0.570829
1.71294
2.85544
3.99778
5.13989
6.28169
7.42313
8.56413
9.70461
10.8445
11.9837
13.1222
14.2598
15.3965
16.5321
17.6667
18.7999
19.9318
21.0622
22.191
23.3181
24.4432
25.5663
26.6872
27.8058
28.9218
30.0351
31.1455
32.2528
33.3568
34.4573
35.5539
36.6466
37.7349
38.8187
39.8977
40.9715
42.0398
43.1023
44.1587
45.2085
46.2514
47.287
48.3148
49.3343
50.345
51.3465
52.3382
53.3196
54.29
55.2489
56.1956
57.1294
58.0496
58.9554
59.846
60.7204
61.5774
62.4156
63.2327
64.0254
64.7882
65.5113
66.1766
66.7497
67.1641
67.2887
66.8647
65.392
61.9655
55.2182
43.9629
29.2042
15.3201
6.27201
1.92216
0.200367
-0.3916
-0.549247
-0.549606
-0.49788
-0.433446
-0.370774
-0.314832
-0.266886
-0.22674
-0.193608
-0.166483
-0.144295
-0.126003
-0.110642
-0.0973489
-0.0853949
-0.074185
-0.0632664
-0.052326
-0.041174
-0.0297304
-0.0180056
-0.00604014
</DataArray>
<DataArray Name="B" type="Float32" format="ascii">
-20.8
-20.6
-20.4
-20.2
-20
-19.8
-19.6
-19.4
-19.2
-19
-18.8
-18.6
-18.4
-18.2
-18
-17.8
-17.6
-17.4
-17.2
-17
-16.8
-16.6
-16.4
-16.2
-16
-15.8
-15.6
-15.4
-15.2
-15
-14.8
-14.6
-14.4
-14.2
-14
-13.8
-13.6
-13.4
-13.2
-13
-12.8
-12.6
-12.4
-12.2
-12
-11.8
-11.6
-11.4
-11.2
-11
-10.8
-10.6
-10.4
-10.2
-10
-9.8
-9.6
-9.4
-9.2
-9
-8.8
-8.6
-8.4
-8.2
-8
-7.8
-7.6
-7.4
-7.2
-7
-6.8
-6.6
-6.4
-6.2
-6
-5.8
-5.6
-5.4
-5.2
-5
-4.8
-4.6
-4.4
-4.2
-4
-3.8
-3.6
-3.4
-3.2
-3
-2.8
-2.6
-2.4
-2.2
-2
-1.8
-1.6
-1.4
-1.2
-1
</DataArray>
</CellData>
</Piece>
</RectilinearGrid>
</VTKFile>
