<?xml version="1.0"?>
<VTKFile type="RectilinearGrid">
<RectilinearGrid WholeExtent="0 100 0 0 0 0">
<Piece Extent="0 100 0 0 0 0">
<Coordinates>
<DataArray type="Float32" format="ascii">
0
10
20
30
40
50
60
70
80
90
100
110
120
130
140
150
160
170
180
190
200
210
220
230
240
250
260
270
280
290
300
310
320
330
340
350
360
370
380
390
400
410
420
430
440
450
460
470
480
490
500
510
520
530
540
550
560
570
580
590
600
610
620
630
640
650
660
670
680
690
700
710
720
730
740
750
760
770
780
790
800
810
820
830
840
850
860
870
880
890
900
910
920
930
940
950
960
970
980
990
1000
</DataArray>
<DataArray type="Float32" format="ascii">
0
</DataArray>
<DataArray type="Float32" format="ascii">
0
</DataArray>
</Coordinates>
<CellData>
<DataArray Name="h" type="Float32" format="ascii">
4.12755
4.12801
4.12895
4.13041
4.13237
4.13486
4.13787
4.14142
4.1455
4.15013
4.1553
4.16103
4.16732
4.17416
4.18158
4.18956
4.1981
4.20723
4.21692
4.22719
4.23803
4.24944
4.26143
4.27398
4.2871
4.30078
4.31501
4.3298
4.34513
4.36099
4.37738
4.39429
4.41171
4.42963
4.44803
4.46691
4.48626
4.50605
4.52629
4.54695
4.56803
4.58951
4.61139
4.63364
4.65629
4.67933
4.70282
4.7269
4.75189
4.77851
4.80845
4.84546
4.8979
4.984
5.14123
5.43794
5.968
6.78548
7.79097
8.74128
9.44537
9.88096
10.1233
10.2526
10.322
10.3613
10.3858
10.4031
10.4169
10.429
10.4404
10.4514
10.4623
10.4731
10.484
10.4949
10.5059
10.5168
10.5277
10.5386
10.5495
10.5602
10.5709
10.5814
10.5917
10.6018
10.6116
10.6211
10.6303
10.6391
10.6473
10.6551
10.6623
10.6688
10.6746
10.6796
10.6837
10.6868
10.6888
10.6898
</DataArray>
<DataArray Name="hu" type="Float32" format="ascii">
0.177346
0.532205
0.88719
1.24207
1.59679
1.95129
2.30556
2.65952
3.01315
3.36641
3.71926
4.07167
4.42362
4.77511
5.12611
5.47661
5.82665
6.17622
6.52536
6.87411
7.22251
7.57061
7.9185
8.26625
8.61395
8.96169
9.3096
9.65781
10.0065
10.3557
10.7055
11.0563
11.4081
11.7611
12.1155
12.4714
12.8291
13.1886
13.5501
13.9139
14.2801
14.6489
15.0203
15.3944
15.7712
16.1506
16.532
16.9137
17.2921
17.6591
17.9963
18.2625
18.3666
18.1105
17.0787
14.476
9.07456
-0.175673
-12.5647
-25.0172
-34.4485
-40.0208
-42.6076
-43.3796
-43.1739
-42.4696
-41.5162
-40.4381
-39.2964
-38.1211
-36.927
-35.7213
-34.5078
-33.2885
-32.0643
-30.8359
-29.6036
-28.3679
-27.1288
-25.8865
-24.6413
-23.3932
-22.1425
-20.8894
-19.634
-18.3765
-17.1171
-15.8558
-14.5929
-13.3285
-12.0628
-10.7959
-9.52806
-8.25934
-6.98994
-5.72002
-4.44973
-3.17922
-1.9086
-0.636651
</DataArray>
<DataArray Name="B" type="Float32" format="ascii">
-20.8
-20.6
-20.4
-20.2
-20
-19.8
-19.6
-19.4
-19.2
-19
-18.8
-18.6
-18.4
-18.2
-18
-17.8
-17.6
-17.4
-17.2
-17
-16.8
-16.6
-16.4
-16.2
-16
-15.8
-15.6
-15.4
-15.2
-15
-14.8
-14.6
-14.4
-14.2
-14
-13.8
-13.6
-13.4
-13.2
-13
-12.8
-12.6
-12.4
-12.2
-12
-11.8
-11.6
-11.4
-11.2
-11
-10.8
-10.6
-10.4
-10.2
-10
-9.8
-9.6
-9.4
-9.2
-9
-8.8
-8.6
-8.4
-8.2
-8
-7.8
-7.6
-7.4
-7.2
-7
-6.8
-6.6
-6.4
-6.2
-6
-5.8
-5.6
-5.4
-5.2
-5
-4.8
-4.6
-4.4
-4.2
-4
-3.8
-3.6
-3.4
-3.2
-3
-2.8
-2.6
-2.4
-2.2
-2
-1.8
-1.6
-1.4
-1.2
-1
</DataArray>
</CellData>
</Piece>
</RectilinearGrid>
</VTKFile>
