<?xml version="1.0"?>
<VTKFile type="RectilinearGrid">
<RectilinearGrid WholeExtent="0 100 0 0 0 0">
<Piece Extent="0 100 0 0 0 0">
<Coordinates>
<DataArray type="Float32" format="ascii">
0
10
20
30
40
50
60
70
80
90
100
110
120
130
140
150
160
170
180
190
200
210
220
230
240
250
260
270
280
290
300
310
320
330
340
350
360
370
380
390
400
410
420
430
440
450
460
470
480
490
500
510
520
530
540
550
560
570
580
590
600
610
620
630
640
650
660
670
680
690
700
710
720
730
740
750
760
770
780
790
800
810
820
830
840
850
860
870
880
890
900
910
920
930
940
950
960
970
980
990
1000
</DataArray>
<DataArray type="Float32" format="ascii">
0
</DataArray>
<DataArray type="Float32" format="ascii">
0
</DataArray>
</Coordinates>
<CellData>
<DataArray Name="h" type="Float32" format="ascii">
3.80605
3.80615
3.80636
3.80668
3.80711
3.80765
3.80831
3.80908
3.80997
3.81097
3.81209
3.81332
3.81465
3.81607
3.81759
3.81918
3.82083
3.82253
3.82426
3.82599
3.82771
3.82938
3.83099
3.83251
3.83392
3.83519
3.83631
3.83724
3.83796
3.83848
3.83876
3.83879
3.83857
3.83809
3.83735
3.83634
3.83507
3.83354
3.83174
3.82969
3.8274
3.82487
3.82211
3.81914
3.81599
3.8127
3.80937
3.80616
3.80347
3.80207
3.80368
3.8121
3.83579
3.89339
4.02444
4.304
4.8414
5.70975
6.80818
7.86015
8.64399
9.13625
9.42553
9.60248
9.72562
9.82661
9.92123
10.0169
10.117
10.2227
10.3341
10.4507
10.5721
10.6974
10.8257
10.9562
11.0881
11.2206
11.3529
11.4842
11.6138
11.7412
11.8656
11.9865
12.1033
12.2157
12.3231
12.4251
12.5213
12.6114
12.695
12.7718
12.8414
12.9035
12.9578
13.004
13.0416
13.0702
13.0895
13.0992
</DataArray>
<DataArray Name="hu" type="Float32" format="ascii">
0.00811874
0.0242413
0.0400228
0.0552373
0.0696872
0.0831706
0.0954998
0.106519
0.116086
0.124083
0.130443
0.135144
0.138192
0.139616
0.139522
0.138063
0.135378
0.131681
0.127241
0.122329
0.11725
0.1123
0.107806
0.104111
0.101525
0.100356
0.100872
0.103335
0.107983
0.115001
0.124549
0.136739
0.151623
0.169215
0.18951
0.212461
0.23801
0.266066
0.296492
0.329164
0.363955
0.400719
0.439315
0.479605
0.521406
0.564445
0.608171
0.651305
0.690782
0.719285
0.719561
0.651345
0.421708
-0.180239
-1.61631
-4.81694
-11.3162
-22.5973
-38.0541
-53.931
-66.2185
-73.7264
-77.4977
-78.977
-79.1912
-78.722
-77.8697
-76.7844
-75.541
-74.1777
-72.7147
-71.1636
-69.5311
-67.8215
-66.0376
-64.1815
-62.2542
-60.2567
-58.1896
-56.0531
-53.8478
-51.5742
-49.2331
-46.8254
-44.3526
-41.8164
-39.2192
-36.5634
-33.8522
-31.0889
-28.2773
-25.4214
-22.5255
-19.5941
-16.6319
-13.6436
-10.6341
-7.60838
-4.57138
-1.52534
</DataArray>
<DataArray Name="B" type="Float32" format="ascii">
-20.8
-20.6
-20.4
-20.2
-20
-19.8
-19.6
-19.4
-19.2
-19
-18.8
-18.6
-18.4
-18.2
-18
-17.8
-17.6
-17.4
-17.2
-17
-16.8
-16.6
-16.4
-16.2
-16
-15.8
-15.6
-15.4
-15.2
-15
-14.8
-14.6
-14.4
-14.2
-14
-13.8
-13.6
-13.4
-13.2
-13
-12.8
-12.6
-12.4
-12.2
-12
-11.8
-11.6
-11.4
-11.2
-11
-10.8
-10.6
-10.4
-10.2
-10
-9.8
-9.6
-9.4
-9.2
-9
-8.8
-8.6
-8.4
-8.2
-8
-7.8
-7.6
-7.4
-7.2
-7
-6.8
-6.6
-6.4
-6.2
-6
-5.8
-5.6
-5.4
-5.2
-5
-4.8
-4.6
-4.4
-4.2
-4
-3.8
-3.6
-3.4
-3.2
-3
-2.8
-2.6
-2.4
-2.2
-2
-1.8
-1.6
-1.4
-1.2
-1
</DataArray>
</CellData>
</Piece>
</RectilinearGrid>
</VTKFile>
