<?xml version="1.0"?>
<VTKFile type="RectilinearGrid">
<RectilinearGrid WholeExtent="0 100 0 0 0 0">
<Piece Extent="0 100 0 0 0 0">
<Coordinates>
<DataArray type="Float32" format="ascii">
0
10
20
30
40
50
60
70
80
90
100
110
120
130
140
150
160
170
180
190
200
210
220
230
240
250
260
270
280
290
300
310
320
330
340
350
360
370
380
390
400
410
420
430
440
450
460
470
480
490
500
510
520
530
540
550
560
570
580
590
600
610
620
630
640
650
660
670
680
690
700
710
720
730
740
750
760
770
780
790
800
810
820
830
840
850
860
870
880
890
900
910
920
930
940
950
960
970
980
990
1000
</DataArray>
<DataArray type="Float32" format="ascii">
0
</DataArray>
<DataArray type="Float32" format="ascii">
0
</DataArray>
</Coordinates>
<CellData>
<DataArray Name="h" type="Float32" format="ascii">
3.85059
3.85055
3.85048
3.85037
3.85021
3.85002
3.84979
3.84951
3.8492
3.84883
3.84842
3.84797
3.84746
3.8469
3.8463
3.84564
3.84495
3.84422
3.84348
3.84276
3.84211
3.84162
3.84141
3.84165
3.8426
3.84458
3.84802
3.85345
3.8615
3.87293
3.88855
3.90921
3.93579
3.9691
4.00988
4.05872
4.11604
4.1821
4.25696
4.34048
4.4324
4.53231
4.63968
4.75395
4.87447
5.00059
5.13164
5.26697
5.40593
5.54789
5.69224
5.8384
5.9858
6.13391
6.28219
6.43016
6.57733
6.72324
6.86747
7.00957
7.14917
7.28589
7.41938
7.54928
7.67528
7.79707
7.91434
8.02681
8.13418
8.2362
8.33259
8.42313
8.50757
8.58573
8.65744
8.72258
8.78107
8.83291
8.87814
8.91692
8.94951
8.97649
8.99921
9.02146
9.0547
9.13385
9.35953
9.96742
11.2598
13.1223
14.8544
15.9672
16.5255
16.7688
16.8671
16.9053
16.9198
16.9254
16.9276
16.9284
</DataArray>
<DataArray Name="hu" type="Float32" format="ascii">
0.00459683
0.0137784
0.0229419
0.032091
0.0412247
0.0503214
0.0593892
0.0684208
0.0773855
0.086296
0.095131
0.103885
0.112554
0.121121
0.129616
0.138094
0.146622
0.155365
0.164618
0.174862
0.186849
0.201742
0.221245
0.247762
0.284646
0.336353
0.40857
0.508336
0.644052
0.825291
1.06257
1.36688
1.74914
2.21961
2.78731
3.45953
4.24147
5.13604
6.14386
7.2634
8.49127
9.82251
11.251
12.7699
14.3718
16.0491
17.7942
19.5997
21.4587
23.3643
25.3103
27.2909
29.3004
31.3336
33.3857
35.4517
37.527
39.6068
41.6863
43.7608
45.825
47.8736
49.9011
51.9016
53.8691
55.7973
57.6796
59.5096
61.2805
62.9857
64.6188
66.1735
67.6442
69.0254
70.3129
71.5029
72.5928
73.5815
74.4687
75.2557
75.9449
76.5384
77.0351
77.4206
77.635
77.4758
76.3008
72.2837
61.9205
43.9217
24.5457
10.9058
3.81107
0.782033
-0.314279
-0.606275
-0.587738
-0.455067
-0.28196
-0.0951088
</DataArray>
<DataArray Name="B" type="Float32" format="ascii">
-20.8
-20.6
-20.4
-20.2
-20
-19.8
-19.6
-19.4
-19.2
-19
-18.8
-18.6
-18.4
-18.2
-18
-17.8
-17.6
-17.4
-17.2
-17
-16.8
-16.6
-16.4
-16.2
-16
-15.8
-15.6
-15.4
-15.2
-15
-14.8
-14.6
-14.4
-14.2
-14
-13.8
-13.6
-13.4
-13.2
-13
-12.8
-12.6
-12.4
-12.2
-12
-11.8
-11.6
-11.4
-11.2
-11
-10.8
-10.6
-10.4
-10.2
-10
-9.8
-9.6
-9.4
-9.2
-9
-8.8
-8.6
-8.4
-8.2
-8
-7.8
-7.6
-7.4
-7.2
-7
-6.8
-6.6
-6.4
-6.2
-6
-5.8
-5.6
-5.4
-5.2
-5
-4.8
-4.6
-4.4
-4.2
-4
-3.8
-3.6
-3.4
-3.2
-3
-2.8
-2.6
-2.4
-2.2
-2
-1.8
-1.6
-1.4
-1.2
-1
</DataArray>
</CellData>
</Piece>
</RectilinearGrid>
</VTKFile>
