<?xml version="1.0"?>
<VTKFile type="RectilinearGrid">
<RectilinearGrid WholeExtent="0 100 0 0 0 0">
<Piece Extent="0 100 0 0 0 0">
<Coordinates>
<DataArray type="Float32" format="ascii">
0
10
20
30
40
50
60
70
80
90
100
110
120
130
140
150
160
170
180
190
200
210
220
230
240
250
260
270
280
290
300
310
320
330
340
350
360
370
380
390
400
410
420
430
440
450
460
470
480
490
500
510
520
530
540
550
560
570
580
590
600
610
620
630
640
650
660
670
680
690
700
710
720
730
740
750
760
770
780
790
800
810
820
830
840
850
860
870
880
890
900
910
920
930
940
950
960
970
980
990
1000
</DataArray>
<DataArray type="Float32" format="ascii">
0
</DataArray>
<DataArray type="Float32" format="ascii">
0
</DataArray>
</Coordinates>
<CellData>
<DataArray Name="h" type="Float32" format="ascii">
3.85497
3.85492
3.85482
3.85468
3.85449
3.85425
3.85397
3.85364
3.85328
3.85291
3.85255
3.85226
3.85211
3.85224
3.85281
3.85408
3.85641
3.86024
3.86615
3.87486
3.88717
3.90402
3.92637
3.95523
3.99152
4.03608
4.0896
4.15256
4.22522
4.30762
4.3996
4.50078
4.61066
4.72859
4.85386
4.98569
5.1233
5.26588
5.41268
5.56293
5.71593
5.87099
6.02748
6.1848
6.34238
6.49968
6.65621
6.81147
6.965
7.11635
7.26508
7.41075
7.55291
7.69111
7.82492
7.95386
8.07747
8.19527
8.30681
8.41162
8.50929
8.59945
8.68181
8.75616
8.82241
8.88059
8.93085
8.97351
9.009
9.03784
9.06066
9.07812
9.09094
9.09979
9.10532
9.10812
9.10869
9.10747
9.10479
9.10093
9.09607
9.09034
9.08383
9.07658
9.0686
9.05987
9.05036
9.04003
9.02885
9.01696
9.0052
8.9975
9.01062
9.11049
9.51772
10.6968
12.7893
14.8841
16.15
16.646
</DataArray>
<DataArray Name="hu" type="Float32" format="ascii">
0.00111578
0.00335231
0.00556021
0.00769723
0.00975611
0.0117421
0.0136783
0.0156318
0.0177387
0.0202636
0.0236701
0.0287123
0.0365498
0.048949
0.068537
0.0989687
0.145168
0.213598
0.312371
0.451292
0.641767
0.896428
1.22864
1.65189
2.17897
2.82129
3.58819
4.48652
5.52032
6.69081
7.99653
9.43365
10.9964
12.6776
14.4687
16.3607
18.3441
20.4093
22.5466
24.7466
27.0001
29.2978
31.6311
33.9911
36.3694
38.7573
41.1465
43.5284
45.8942
48.2353
50.5428
52.8075
55.0202
57.1717
59.2528
61.2541
63.1667
64.9821
66.6921
68.2896
69.7682
71.123
72.3504
73.4487
74.418
75.2602
75.9797
76.5825
77.0765
77.4712
77.777
78.005
78.1666
78.2728
78.3339
78.3594
78.3575
78.3352
78.2983
78.2516
78.1988
78.1427
78.0854
78.0286
77.9733
77.9206
77.871
77.825
77.7828
77.7437
77.7032
77.6418
77.479
76.8892
74.5814
66.5419
48.3405
26.1145
10.5288
2.58774
</DataArray>
<DataArray Name="B" type="Float32" format="ascii">
-20.8
-20.6
-20.4
-20.2
-20
-19.8
-19.6
-19.4
-19.2
-19
-18.8
-18.6
-18.4
-18.2
-18
-17.8
-17.6
-17.4
-17.2
-17
-16.8
-16.6
-16.4
-16.2
-16
-15.8
-15.6
-15.4
-15.2
-15
-14.8
-14.6
-14.4
-14.2
-14
-13.8
-13.6
-13.4
-13.2
-13
-12.8
-12.6
-12.4
-12.2
-12
-11.8
-11.6
-11.4
-11.2
-11
-10.8
-10.6
-10.4
-10.2
-10
-9.8
-9.6
-9.4
-9.2
-9
-8.8
-8.6
-8.4
-8.2
-8
-7.8
-7.6
-7.4
-7.2
-7
-6.8
-6.6
-6.4
-6.2
-6
-5.8
-5.6
-5.4
-5.2
-5
-4.8
-4.6
-4.4
-4.2
-4
-3.8
-3.6
-3.4
-3.2
-3
-2.8
-2.6
-2.4
-2.2
-2
-1.8
-1.6
-1.4
-1.2
-1
</DataArray>
</CellData>
</Piece>
</RectilinearGrid>
</VTKFile>
