<?xml version="1.0"?>
<VTKFile type="RectilinearGrid">
<RectilinearGrid WholeExtent="0 100 0 0 0 0">
<Piece Extent="0 100 0 0 0 0">
<Coordinates>
<DataArray type="Float32" format="ascii">
0
10
20
30
40
50
60
70
80
90
100
110
120
130
140
150
160
170
180
190
200
210
220
230
240
250
260
270
280
290
300
310
320
330
340
350
360
370
380
390
400
410
420
430
440
450
460
470
480
490
500
510
520
530
540
550
560
570
580
590
600
610
620
630
640
650
660
670
680
690
700
710
720
730
740
750
760
770
780
790
800
810
820
830
840
850
860
870
880
890
900
910
920
930
940
950
960
970
980
990
1000
</DataArray>
<DataArray type="Float32" format="ascii">
0
</DataArray>
<DataArray type="Float32" format="ascii">
0
</DataArray>
</Coordinates>
<CellData>
<DataArray Name="h" type="Float32" format="ascii">
6.00812
6.0084
6.00899
6.00993
6.01122
6.01286
6.01485
6.0172
6.01991
6.02298
6.02642
6.03022
6.0344
6.03894
6.04387
6.04917
6.05485
6.06092
6.06738
6.07423
6.08148
6.08913
6.09718
6.10564
6.11451
6.1238
6.1335
6.14364
6.1542
6.1652
6.17664
6.18854
6.20088
6.21369
6.22697
6.24072
6.25496
6.2697
6.28494
6.30069
6.31697
6.33379
6.35115
6.36907
6.38756
6.40664
6.42631
6.44659
6.46751
6.48905
6.51125
6.53411
6.55764
6.58186
6.60678
6.63239
6.65871
6.68573
6.71346
6.74189
6.771
6.80079
6.83123
6.8623
6.89396
6.92618
6.9589
6.99208
7.02566
7.05957
7.09375
7.12811
7.16259
7.19709
7.23154
7.26585
7.29992
7.33368
7.36702
7.39986
7.4321
7.46364
7.49439
7.52425
7.55314
7.58097
7.60763
7.63305
7.65717
7.68012
7.70283
7.72986
7.78098
7.93493
8.44895
9.78805
11.8861
13.7349
14.7461
15.1204
</DataArray>
<DataArray Name="hu" type="Float32" format="ascii">
0.388322
1.1653
1.94262
2.7199
3.49715
4.27433
5.0514
5.82836
6.6052
7.38185
8.15832
8.93457
9.71057
10.4863
11.2617
12.0367
12.8113
13.5854
14.3591
15.1322
15.9047
16.6765
17.4475
18.2177
18.9871
19.7555
20.5228
21.289
22.054
22.8176
23.5797
24.3403
25.0992
25.8563
26.6114
27.3644
28.1152
28.8635
29.6093
30.3522
31.0923
31.8292
32.5628
33.2929
34.0192
34.7416
35.4599
36.1738
36.8831
37.5877
38.2873
38.9818
39.6709
40.3545
41.0324
41.7045
42.3707
43.0309
43.6851
44.3331
44.9751
45.611
46.2411
46.8653
47.4838
48.097
48.705
49.3082
49.9068
50.5012
51.0917
51.6787
52.2626
52.8436
53.4221
53.9983
54.5726
55.1452
55.7163
56.286
56.8545
57.4219
57.9881
58.5533
59.1173
59.6799
60.2411
60.8005
61.3577
61.9112
62.4555
62.9684
63.3583
63.2471
61.1174
52.6785
35.1633
16.7188
5.7273
1.20279
</DataArray>
<DataArray Name="B" type="Float32" format="ascii">
-20.8
-20.6
-20.4
-20.2
-20
-19.8
-19.6
-19.4
-19.2
-19
-18.8
-18.6
-18.4
-18.2
-18
-17.8
-17.6
-17.4
-17.2
-17
-16.8
-16.6
-16.4
-16.2
-16
-15.8
-15.6
-15.4
-15.2
-15
-14.8
-14.6
-14.4
-14.2
-14
-13.8
-13.6
-13.4
-13.2
-13
-12.8
-12.6
-12.4
-12.2
-12
-11.8
-11.6
-11.4
-11.2
-11
-10.8
-10.6
-10.4
-10.2
-10
-9.8
-9.6
-9.4
-9.2
-9
-8.8
-8.6
-8.4
-8.2
-8
-7.8
-7.6
-7.4
-7.2
-7
-6.8
-6.6
-6.4
-6.2
-6
-5.8
-5.6
-5.4
-5.2
-5
-4.8
-4.6
-4.4
-4.2
-4
-3.8
-3.6
-3.4
-3.2
-3
-2.8
-2.6
-2.4
-2.2
-2
-1.8
-1.6
-1.4
-1.2
-1
</DataArray>
</CellData>
</Piece>
</RectilinearGrid>
</VTKFile>
