<?xml version="1.0"?>
<VTKFile type="RectilinearGrid">
<RectilinearGrid WholeExtent="0 100 0 0 0 0">
<Piece Extent="0 100 0 0 0 0">
<Coordinates>
<DataArray type="Float32" format="ascii">
0
10
20
30
40
50
60
70
80
90
100
110
120
130
140
150
160
170
180
190
200
210
220
230
240
250
260
270
280
290
300
310
320
330
340
350
360
370
380
390
400
410
420
430
440
450
460
470
480
490
500
510
520
530
540
550
560
570
580
590
600
610
620
630
640
650
660
670
680
690
700
710
720
730
740
750
760
770
780
790
800
810
820
830
840
850
860
870
880
890
900
910
920
930
940
950
960
970
980
990
1000
</DataArray>
<DataArray type="Float32" format="ascii">
0
</DataArray>
<DataArray type="Float32" format="ascii">
0
</DataArray>
</Coordinates>
<CellData>
<DataArray Name="h" type="Float32" format="ascii">
9.92033
9.92035
9.92046
9.92067
9.92099
9.9214
9.92191
9.92249
9.92315
9.92386
9.92463
9.92544
9.92627
9.92711
9.92794
9.92875
9.92952
9.93023
9.93087
9.9314
9.9318
9.93207
9.93216
9.93205
9.93172
9.93112
9.93024
9.92904
9.92747
9.92551
9.92311
9.92024
9.91686
9.91292
9.90838
9.9032
9.89732
9.89069
9.88323
9.87485
9.86543
9.85476
9.84248
9.82797
9.81009
9.78671
9.75385
9.70403
9.62334
9.48637
9.24951
8.84748
8.2108
7.33019
6.33818
5.46521
4.85494
4.49129
4.28867
4.17314
4.10052
4.04813
4.00506
3.96623
3.9293
3.89321
3.85749
3.82198
3.7866
3.75139
3.71638
3.68163
3.6472
3.61317
3.57961
3.5466
3.5142
3.48248
3.45153
3.42141
3.39219
3.36396
3.33679
3.31075
3.28594
3.26244
3.24034
3.21972
3.20068
3.18328
3.1676
3.15368
3.14154
3.13116
3.12251
3.1155
3.11005
3.10603
3.10335
3.10199
</DataArray>
<DataArray Name="hu" type="Float32" format="ascii">
0.682953
2.04928
3.41579
4.78169
6.14672
7.51065
8.87323
10.2342
11.5932
12.95
14.3044
15.656
17.0045
18.3497
19.6911
21.0285
22.3614
23.6895
25.0123
26.3295
27.6405
28.9449
30.2422
31.5318
32.8132
34.0859
35.3492
36.6026
37.8454
39.077
40.2966
41.5036
42.6971
43.8764
45.0406
46.1889
47.3204
48.434
49.5285
50.6022
51.6528
52.6765
53.6671
54.6135
55.4954
56.2756
56.8841
57.1899
56.9503
55.7295
52.8017
47.1519
37.8971
25.423
12.2884
1.77958
-4.7447
-8.04675
-9.42885
-9.83123
-9.77021
-9.49923
-9.1371
-8.73855
-8.32862
-7.91865
-7.51373
-7.11607
-6.72657
-6.34554
-5.97301
-5.60896
-5.25332
-4.9061
-4.56732
-4.23711
-3.91568
-3.60332
-3.30044
-3.00753
-2.72516
-2.45397
-2.19469
-1.94805
-1.71482
-1.49577
-1.2916
-1.10297
-0.930392
-0.774249
-0.63472
-0.511744
-0.404982
-0.313784
-0.237171
-0.17382
-0.122064
-0.0798974
-0.0449779
-0.0145066
</DataArray>
<DataArray Name="B" type="Float32" format="ascii">
-20.8
-20.6
-20.4
-20.2
-20
-19.8
-19.6
-19.4
-19.2
-19
-18.8
-18.6
-18.4
-18.2
-18
-17.8
-17.6
-17.4
-17.2
-17
-16.8
-16.6
-16.4
-16.2
-16
-15.8
-15.6
-15.4
-15.2
-15
-14.8
-14.6
-14.4
-14.2
-14
-13.8
-13.6
-13.4
-13.2
-13
-12.8
-12.6
-12.4
-12.2
-12
-11.8
-11.6
-11.4
-11.2
-11
-10.8
-10.6
-10.4
-10.2
-10
-9.8
-9.6
-9.4
-9.2
-9
-8.8
-8.6
-8.4
-8.2
-8
-7.8
-7.6
-7.4
-7.2
-7
-6.8
-6.6
-6.4
-6.2
-6
-5.8
-5.6
-5.4
-5.2
-5
-4.8
-4.6
-4.4
-4.2
-4
-3.8
-3.6
-3.4
-3.2
-3
-2.8
-2.6
-2.4
-2.2
-2
-1.8
-1.6
-1.4
-1.2
-1
</DataArray>
</CellData>
</Piece>
</RectilinearGrid>
</VTKFile>
