<?xml version="1.0"?>
<VTKFile type="RectilinearGrid">
<RectilinearGrid WholeExtent="0 100 0 0 0 0">
<Piece Extent="0 100 0 0 0 0">
<Coordinates>
<DataArray type="Float32" format="ascii">
0
10
20
30
40
50
60
70
80
90
100
110
120
130
140
150
160
170
180
190
200
210
220
230
240
250
260
270
280
290
300
310
320
330
340
350
360
370
380
390
400
410
420
430
440
450
460
470
480
490
500
510
520
530
540
550
560
570
580
590
600
610
620
630
640
650
660
670
680
690
700
710
720
730
740
750
760
770
780
790
800
810
820
830
840
850
860
870
880
890
900
910
920
930
940
950
960
970
980
990
1000
</DataArray>
<DataArray type="Float32" format="ascii">
0
</DataArray>
<DataArray type="Float32" format="ascii">
0
</DataArray>
</Coordinates>
<CellData>
<DataArray Name="h" type="Float32" format="ascii">
3.8537
3.85375
3.85388
3.85418
3.85477
3.85588
3.85779
3.86094
3.86585
3.87325
3.88399
3.89908
3.91963
3.94681
3.98181
4.02571
4.07947
4.14382
4.21924
4.30591
4.40376
4.51246
4.63145
4.76002
4.89732
5.04242
5.19433
5.35209
5.51468
5.68117
5.85061
6.02211
6.1948
6.36785
6.54045
6.71184
6.88125
7.04793
7.21114
7.37016
7.52425
7.67272
7.81486
7.94999
8.07748
8.19675
8.30727
8.40863
8.50053
8.5828
8.65546
8.71869
8.77285
8.81852
8.8564
8.88733
8.91225
8.93215
8.948
8.96071
8.97111
8.97991
8.98767
8.99481
9.00163
9.00828
9.01479
9.02113
9.02718
9.0328
9.03784
9.04214
9.04559
9.0481
9.04963
9.05019
9.0498
9.04853
9.04645
9.04364
9.04016
9.03606
9.03134
9.02594
9.01967
9.01214
9.00254
8.98915
8.96826
8.93189
8.86262
8.72271
8.43347
7.85008
6.79869
5.37373
4.245
3.76183
3.62495
3.59347
</DataArray>
<DataArray Name="hu" type="Float32" format="ascii">
-0.00258066
-0.00722596
-0.0102076
-0.00996104
-0.00429639
0.00995645
0.0373148
0.0839377
0.157955
0.269659
0.431554
0.658137
0.965468
1.37043
1.88981
2.53935
3.33271
4.28067
5.39056
6.666
8.10699
9.71018
11.4693
13.376
15.4198
17.5893
19.8722
22.256
24.7277
27.2746
29.884
32.5432
35.2399
37.9615
40.6958
43.4303
46.1523
48.849
51.5073
54.1137
56.6546
59.1161
61.484
63.7445
65.8839
67.8894
69.7491
71.4529
72.9925
74.3627
75.5609
76.5882
77.4491
78.1514
78.7061
79.1267
79.4282
79.6268
79.7382
79.7779
79.7596
79.6957
79.5966
79.4712
79.3266
79.1688
79.0027
78.8323
78.6611
78.4919
78.327
78.1682
78.0166
77.8729
77.7374
77.61
77.4902
77.3773
77.2704
77.1687
77.0713
76.9772
76.8851
76.7933
76.6981
76.5922
76.4597
76.2663
75.9374
75.3091
74.0231
71.3127
65.66
54.6845
37.02
17.5725
5.49277
1.32167
0.292157
0.0506169
</DataArray>
<DataArray Name="B" type="Float32" format="ascii">
-20.8
-20.6
-20.4
-20.2
-20
-19.8
-19.6
-19.4
-19.2
-19
-18.8
-18.6
-18.4
-18.2
-18
-17.8
-17.6
-17.4
-17.2
-17
-16.8
-16.6
-16.4
-16.2
-16
-15.8
-15.6
-15.4
-15.2
-15
-14.8
-14.6
-14.4
-14.2
-14
-13.8
-13.6
-13.4
-13.2
-13
-12.8
-12.6
-12.4
-12.2
-12
-11.8
-11.6
-11.4
-11.2
-11
-10.8
-10.6
-10.4
-10.2
-10
-9.8
-9.6
-9.4
-9.2
-9
-8.8
-8.6
-8.4
-8.2
-8
-7.8
-7.6
-7.4
-7.2
-7
-6.8
-6.6
-6.4
-6.2
-6
-5.8
-5.6
-5.4
-5.2
-5
-4.8
-4.6
-4.4
-4.2
-4
-3.8
-3.6
-3.4
-3.2
-3
-2.8
-2.6
-2.4
-2.2
-2
-1.8
-1.6
-1.4
-1.2
-1
</DataArray>
</CellData>
</Piece>
</RectilinearGrid>
</VTKFile>
