<?xml version="1.0"?>
<VTKFile type="RectilinearGrid">
<RectilinearGrid WholeExtent="0 100 0 0 0 0">
<Piece Extent="0 100 0 0 0 0">
<Coordinates>
<DataArray type="Float32" format="ascii">
0
10
20
30
40
50
60
70
80
90
100
110
120
130
140
150
160
170
180
190
200
210
220
230
240
250
260
270
280
290
300
310
320
330
340
350
360
370
380
390
400
410
420
430
440
450
460
470
480
490
500
510
520
530
540
550
560
570
580
590
600
610
620
630
640
650
660
670
680
690
700
710
720
730
740
750
760
770
780
790
800
810
820
830
840
850
860
870
880
890
900
910
920
930
940
950
960
970
980
990
1000
</DataArray>
<DataArray type="Float32" format="ascii">
0
</DataArray>
<DataArray type="Float32" format="ascii">
0
</DataArray>
</Coordinates>
<CellData>
<DataArray Name="h" type="Float32" format="ascii">
3.85133
3.85129
3.85121
3.8511
3.85094
3.85075
3.85051
3.85023
3.84991
3.84954
3.84912
3.84866
3.84815
3.84758
3.84697
3.84632
3.84564
3.84494
3.84426
3.84366
3.84321
3.84304
3.84332
3.8443
3.8463
3.84977
3.85523
3.86333
3.8748
3.89049
3.91125
3.93796
3.97145
4.01245
4.06158
4.11927
4.18575
4.26109
4.34517
4.43769
4.53825
4.64632
4.76132
4.88261
5.00953
5.14143
5.27765
5.41755
5.56051
5.70593
5.85325
6.00191
6.15138
6.30113
6.45065
6.59947
6.7471
6.89308
7.03696
7.17832
7.31674
7.45181
7.58318
7.71046
7.83333
7.95144
8.0645
8.1722
8.27426
8.37042
8.46044
8.54412
8.62127
8.69175
8.75548
8.81241
8.86259
8.90609
8.9431
8.97385
8.99867
9.01801
9.03262
9.04409
9.05677
9.08383
9.16612
9.42139
10.1159
11.5404
13.4625
15.1257
16.1313
16.6138
16.8172
16.897
16.9271
16.9382
16.9423
16.9437
</DataArray>
<DataArray Name="hu" type="Float32" format="ascii">
0.00423884
0.0126983
0.0211456
0.0295732
0.0379725
0.0463498
0.0546718
0.0629275
0.0711431
0.0792867
0.0873349
0.0952948
0.103149
0.110927
0.118672
0.126464
0.134462
0.142969
0.152461
0.163679
0.177789
0.196513
0.222283
0.258489
0.309624
0.381467
0.481187
0.617307
0.799619
1.03885
1.34623
1.73298
2.20965
2.78551
3.46811
4.26282
5.17275
6.19857
7.33878
8.58994
9.94702
11.4037
12.9529
14.5869
16.2979
18.0778
19.9189
21.8138
23.7553
25.7367
27.7517
29.7943
31.8591
33.9408
36.0343
38.1348
40.2375
42.3375
44.4298
46.5094
48.571
50.6089
52.6172
54.5898
56.5201
58.4015
60.2271
61.9899
63.6831
65.2999
66.834
68.2792
69.6305
70.8834
72.0345
73.0817
74.0243
74.863
75.5999
76.239
76.7851
77.2442
77.6217
77.9186
78.1202
78.1595
77.8029
76.2994
71.5272
59.7715
40.7236
21.7699
9.30238
3.13978
0.614507
-0.255172
-0.456269
-0.40523
-0.263319
-0.0902862
</DataArray>
<DataArray Name="B" type="Float32" format="ascii">
-20.8
-20.6
-20.4
-20.2
-20
-19.8
-19.6
-19.4
-19.2
-19
-18.8
-18.6
-18.4
-18.2
-18
-17.8
-17.6
-17.4
-17.2
-17
-16.8
-16.6
-16.4
-16.2
-16
-15.8
-15.6
-15.4
-15.2
-15
-14.8
-14.6
-14.4
-14.2
-14
-13.8
-13.6
-13.4
-13.2
-13
-12.8
-12.6
-12.4
-12.2
-12
-11.8
-11.6
-11.4
-11.2
-11
-10.8
-10.6
-10.4
-10.2
-10
-9.8
-9.6
-9.4
-9.2
-9
-8.8
-8.6
-8.4
-8.2
-8
-7.8
-7.6
-7.4
-7.2
-7
-6.8
-6.6
-6.4
-6.2
-6
-5.8
-5.6
-5.4
-5.2
-5
-4.8
-4.6
-4.4
-4.2
-4
-3.8
-3.6
-3.4
-3.2
-3
-2.8
-2.6
-2.4
-2.2
-2
-1.8
-1.6
-1.4
-1.2
-1
</DataArray>
</CellData>
</Piece>
</RectilinearGrid>
</VTKFile>
