<?xml version="1.0"?>
<VTKFile type="RectilinearGrid">
<RectilinearGrid WholeExtent="0 100 0 0 0 0">
<Piece Extent="0 100 0 0 0 0">
<Coordinates>
<DataArray type="Float32" format="ascii">
0
10
20
30
40
50
60
70
80
90
100
110
120
130
140
150
160
170
180
190
200
210
220
230
240
250
260
270
280
290
300
310
320
330
340
350
360
370
380
390
400
410
420
430
440
450
460
470
480
490
500
510
520
530
540
550
560
570
580
590
600
610
620
630
640
650
660
670
680
690
700
710
720
730
740
750
760
770
780
790
800
810
820
830
840
850
860
870
880
890
900
910
920
930
940
950
960
970
980
990
1000
</DataArray>
<DataArray type="Float32" format="ascii">
0
</DataArray>
<DataArray type="Float32" format="ascii">
0
</DataArray>
</Coordinates>
<CellData>
<DataArray Name="h" type="Float32" format="ascii">
3.85468
3.85611
3.85919
3.86438
3.87238
3.88405
3.90049
3.92291
3.95262
3.9909
4.03898
4.09788
4.16838
4.25099
4.34584
4.45281
4.57145
4.70111
4.84092
4.98989
5.14694
5.31096
5.48081
5.65536
5.83351
6.01418
6.19633
6.37896
6.56107
6.74171
6.91995
7.09485
7.2655
7.43099
7.59044
7.74295
7.88771
8.0239
8.15081
8.26779
8.37434
8.47012
8.55495
8.6289
8.69222
8.74541
8.7892
8.82446
8.85219
8.87348
8.88942
8.90104
8.9093
8.91502
8.91891
8.92153
8.92332
8.92465
8.92578
8.92693
8.92829
8.93001
8.93221
8.93501
8.93847
8.94264
8.94752
8.95304
8.95912
8.96558
8.9722
8.97874
8.98494
8.99055
8.99533
8.99911
9.00176
9.00317
9.00323
9.00175
8.99824
8.99161
8.9794
8.95616
8.90997
8.81514
8.61781
8.21457
7.45026
6.24622
4.93258
4.08045
3.73387
3.6256
3.59483
3.58621
3.58377
3.58306
3.58283
3.58277
</DataArray>
<DataArray Name="hu" type="Float32" format="ascii">
0.01551
0.0514318
0.102427
0.179821
0.296671
0.468059
0.71103
1.0442
1.48703
2.05874
2.77723
3.65787
4.71258
5.9492
7.37124
8.978
10.7649
12.724
14.845
17.1155
19.5215
22.0486
24.6816
27.4052
30.2038
33.062
35.9643
38.8953
41.8394
44.7807
47.7031
50.5903
53.4254
56.1913
58.8706
61.4457
63.8993
66.2145
68.3753
70.3675
72.1791
73.8009
75.2276
76.4578
77.4949
78.3467
79.0254
79.5466
79.9289
80.1919
80.3558
80.4397
80.4613
80.4355
80.3749
80.2892
80.1857
80.0697
79.9447
79.8126
79.6747
79.5312
79.3822
79.2274
79.0666
78.8998
78.7272
78.5497
78.3681
78.1841
77.9994
77.8163
77.6367
77.4625
77.2954
77.1362
76.985
76.8409
76.7011
76.5599
76.4055
76.2133
75.9318
75.4505
74.5326
72.6746
68.8575
61.2845
47.8984
29.5119
12.996
4.20543
1.15391
0.288756
0.0580057
-0.000597869
-0.0126502
-0.011985
-0.00781394
-0.00267512
</DataArray>
<DataArray Name="B" type="Float32" format="ascii">
-20.8
-20.6
-20.4
-20.2
-20
-19.8
-19.6
-19.4
-19.2
-19
-18.8
-18.6
-18.4
-18.2
-18
-17.8
-17.6
-17.4
-17.2
-17
-16.8
-16.6
-16.4
-16.2
-16
-15.8
-15.6
-15.4
-15.2
-15
-14.8
-14.6
-14.4
-14.2
-14
-13.8
-13.6
-13.4
-13.2
-13
-12.8
-12.6
-12.4
-12.2
-12
-11.8
-11.6
-11.4
-11.2
-11
-10.8
-10.6
-10.4
-10.2
-10
-9.8
-9.6
-9.4
-9.2
-9
-8.8
-8.6
-8.4
-8.2
-8
-7.8
-7.6
-7.4
-7.2
-7
-6.8
-6.6
-6.4
-6.2
-6
-5.8
-5.6
-5.4
-5.2
-5
-4.8
-4.6
-4.4
-4.2
-4
-3.8
-3.6
-3.4
-3.2
-3
-2.8
-2.6
-2.4
-2.2
-2
-1.8
-1.6
-1.4
-1.2
-1
</DataArray>
</CellData>
</Piece>
</RectilinearGrid>
</VTKFile>
