<?xml version="1.0"?>
<VTKFile type="RectilinearGrid">
<RectilinearGrid WholeExtent="0 100 0 0 0 0">
<Piece Extent="0 100 0 0 0 0">
<Coordinates>
<DataArray type="Float32" format="ascii">
0
10
20
30
40
50
60
70
80
90
100
110
120
130
140
150
160
170
180
190
200
210
220
230
240
250
260
270
280
290
300
310
320
330
340
350
360
370
380
390
400
410
420
430
440
450
460
470
480
490
500
510
520
530
540
550
560
570
580
590
600
610
620
630
640
650
660
670
680
690
700
710
720
730
740
750
760
770
780
790
800
810
820
830
840
850
860
870
880
890
900
910
920
930
940
950
960
970
980
990
1000
</DataArray>
<DataArray type="Float32" format="ascii">
0
</DataArray>
<DataArray type="Float32" format="ascii">
0
</DataArray>
</Coordinates>
<CellData>
<DataArray Name="h" type="Float32" format="ascii">
4.2161
4.21654
4.21746
4.21887
4.22078
4.22319
4.22612
4.22957
4.23355
4.23805
4.2431
4.24869
4.25483
4.26153
4.26878
4.27661
4.285
4.29397
4.30351
4.31364
4.32435
4.33564
4.34752
4.35999
4.37305
4.38668
4.4009
4.4157
4.43107
4.44702
4.46352
4.48059
4.49819
4.51634
4.53502
4.55422
4.57393
4.59413
4.61481
4.63597
4.65758
4.67963
4.70211
4.72501
4.7483
4.77198
4.79603
4.82045
4.84524
4.87043
4.8961
4.9225
4.95013
4.98027
5.01579
5.06333
5.13779
5.27131
5.52668
6.00171
6.77935
7.80231
8.82912
9.62281
10.1247
10.4057
10.555
10.6348
10.6796
10.7074
10.727
10.7426
10.7562
10.769
10.7812
10.7933
10.8052
10.8171
10.8289
10.8406
10.8522
10.8637
10.875
10.8861
10.897
10.9076
10.9179
10.9279
10.9375
10.9466
10.9553
10.9634
10.9708
10.9776
10.9836
10.9887
10.9929
10.9961
10.9982
10.9992
</DataArray>
<DataArray Name="hu" type="Float32" format="ascii">
0.192954
0.579049
0.965278
1.35136
1.73723
2.12282
2.50808
2.89294
3.27735
3.66123
4.04454
4.42724
4.80927
5.1906
5.57118
5.951
6.33003
6.70828
7.08573
7.46238
7.83826
8.21338
8.5878
8.96158
9.33477
9.70743
10.0797
10.4515
10.8232
11.1948
11.5664
11.9382
12.3103
12.6828
13.0561
13.4301
13.8052
14.1815
14.5591
14.9383
15.3193
15.7022
16.0872
16.4745
16.8642
17.2566
17.6516
18.0494
18.4499
18.8528
19.2569
19.6599
20.0558
20.4315
20.7562
20.9604
20.8879
20.1981
18.1984
13.6996
5.3845
-6.6603
-19.6629
-30.0663
-36.449
-39.512
-40.5089
-40.3884
-39.7017
-38.7351
-37.6302
-36.4561
-35.246
-34.0161
-32.7744
-31.5247
-30.2692
-29.0088
-27.7443
-26.476
-25.2043
-23.9295
-22.6516
-21.371
-20.0878
-18.8023
-17.5145
-16.2247
-14.933
-13.6396
-12.3448
-11.0486
-9.75136
-8.45315
-7.15415
-5.85454
-4.55446
-3.25408
-1.95354
-0.651632
</DataArray>
<DataArray Name="B" type="Float32" format="ascii">
-20.8
-20.6
-20.4
-20.2
-20
-19.8
-19.6
-19.4
-19.2
-19
-18.8
-18.6
-18.4
-18.2
-18
-17.8
-17.6
-17.4
-17.2
-17
-16.8
-16.6
-16.4
-16.2
-16
-15.8
-15.6
-15.4
-15.2
-15
-14.8
-14.6
-14.4
-14.2
-14
-13.8
-13.6
-13.4
-13.2
-13
-12.8
-12.6
-12.4
-12.2
-12
-11.8
-11.6
-11.4
-11.2
-11
-10.8
-10.6
-10.4
-10.2
-10
-9.8
-9.6
-9.4
-9.2
-9
-8.8
-8.6
-8.4
-8.2
-8
-7.8
-7.6
-7.4
-7.2
-7
-6.8
-6.6
-6.4
-6.2
-6
-5.8
-5.6
-5.4
-5.2
-5
-4.8
-4.6
-4.4
-4.2
-4
-3.8
-3.6
-3.4
-3.2
-3
-2.8
-2.6
-2.4
-2.2
-2
-1.8
-1.6
-1.4
-1.2
-1
</DataArray>
</CellData>
</Piece>
</RectilinearGrid>
</VTKFile>
