<?xml version="1.0"?>
<VTKFile type="RectilinearGrid">
<RectilinearGrid WholeExtent="0 100 0 0 0 0">
<Piece Extent="0 100 0 0 0 0">
<Coordinates>
<DataArray type="Float32" format="ascii">
0
10
20
30
40
50
60
70
80
90
100
110
120
130
140
150
160
170
180
190
200
210
220
230
240
250
260
270
280
290
300
310
320
330
340
350
360
370
380
390
400
410
420
430
440
450
460
470
480
490
500
510
520
530
540
550
560
570
580
590
600
610
620
630
640
650
660
670
680
690
700
710
720
730
740
750
760
770
780
790
800
810
820
830
840
850
860
870
880
890
900
910
920
930
940
950
960
970
980
990
1000
</DataArray>
<DataArray type="Float32" format="ascii">
0
</DataArray>
<DataArray type="Float32" format="ascii">
0
</DataArray>
</Coordinates>
<CellData>
<DataArray Name="h" type="Float32" format="ascii">
3.85428
3.85426
3.85424
3.85426
3.85439
3.85475
3.85551
3.85691
3.85932
3.8632
3.86918
3.87801
3.89062
3.90803
3.93137
3.96179
4.00039
4.04818
4.10597
4.17436
4.25368
4.34399
4.44509
4.55655
4.67775
4.80796
4.94629
5.09184
5.24365
5.40077
5.56226
5.72721
5.89475
6.06402
6.23421
6.40455
6.57428
6.74268
6.90903
7.07264
7.23281
7.38886
7.54011
7.68591
7.82559
7.95854
8.08415
8.20188
8.31124
8.41185
8.50343
8.58582
8.65904
8.72326
8.77881
8.82623
8.86617
8.89942
8.92686
8.94937
8.96786
8.98314
8.99596
9.00691
9.01646
9.02494
9.03255
9.03938
9.04547
9.05077
9.05521
9.05875
9.06135
9.06297
9.06363
9.06336
9.06223
9.0603
9.05765
9.05435
9.05045
9.04601
9.04102
9.03546
9.02925
9.02228
9.01428
9.00473
8.99256
8.97554
8.94889
8.90226
8.813
8.63219
8.25975
7.52455
6.2828
4.85094
3.97495
3.69416
</DataArray>
<DataArray Name="hu" type="Float32" format="ascii">
-0.00245543
-0.00716475
-0.0111251
-0.0136198
-0.0135592
-0.00920317
0.00202798
0.0238503
0.0614548
0.121812
0.213889
0.348765
0.53955
0.801091
1.14938
1.60076
2.17097
2.87427
3.72248
4.72437
5.88526
7.2069
8.6877
10.3231
12.106
14.0274
16.0769
18.2431
20.5141
22.8778
25.322
27.8345
30.4035
33.017
35.6634
38.3311
41.0085
43.684
46.3457
48.9816
51.5794
54.1266
56.6104
59.0177
61.3353
63.5502
65.6493
67.6205
69.4524
71.1352
72.6606
74.023
75.2193
76.2497
77.1175
77.8291
78.3943
78.825
79.1354
79.3405
79.4561
79.4975
79.4791
79.4141
79.3141
79.189
79.0472
78.8955
78.7395
78.5833
78.43
78.282
78.1406
78.0066
77.88
77.7607
77.6482
77.5418
77.4408
77.3444
77.2519
77.1629
77.0768
76.993
76.9105
76.8273
76.7388
76.6357
76.4973
76.2789
75.8821
75.0901
73.4287
69.8946
62.5882
48.9796
29.2756
11.465
2.94853
0.506704
</DataArray>
<DataArray Name="B" type="Float32" format="ascii">
-20.8
-20.6
-20.4
-20.2
-20
-19.8
-19.6
-19.4
-19.2
-19
-18.8
-18.6
-18.4
-18.2
-18
-17.8
-17.6
-17.4
-17.2
-17
-16.8
-16.6
-16.4
-16.2
-16
-15.8
-15.6
-15.4
-15.2
-15
-14.8
-14.6
-14.4
-14.2
-14
-13.8
-13.6
-13.4
-13.2
-13
-12.8
-12.6
-12.4
-12.2
-12
-11.8
-11.6
-11.4
-11.2
-11
-10.8
-10.6
-10.4
-10.2
-10
-9.8
-9.6
-9.4
-9.2
-9
-8.8
-8.6
-8.4
-8.2
-8
-7.8
-7.6
-7.4
-7.2
-7
-6.8
-6.6
-6.4
-6.2
-6
-5.8
-5.6
-5.4
-5.2
-5
-4.8
-4.6
-4.4
-4.2
-4
-3.8
-3.6
-3.4
-3.2
-3
-2.8
-2.6
-2.4
-2.2
-2
-1.8
-1.6
-1.4
-1.2
-1
</DataArray>
</CellData>
</Piece>
</RectilinearGrid>
</VTKFile>
