<?xml version="1.0"?>
<VTKFile type="RectilinearGrid">
<RectilinearGrid WholeExtent="0 100 0 0 0 0">
<Piece Extent="0 100 0 0 0 0">
<Coordinates>
<DataArray type="Float32" format="ascii">
0
10
20
30
40
50
60
70
80
90
100
110
120
130
140
150
160
170
180
190
200
210
220
230
240
250
260
270
280
290
300
310
320
330
340
350
360
370
380
390
400
410
420
430
440
450
460
470
480
490
500
510
520
530
540
550
560
570
580
590
600
610
620
630
640
650
660
670
680
690
700
710
720
730
740
750
760
770
780
790
800
810
820
830
840
850
860
870
880
890
900
910
920
930
940
950
960
970
980
990
1000
</DataArray>
<DataArray type="Float32" format="ascii">
0
</DataArray>
<DataArray type="Float32" format="ascii">
0
</DataArray>
</Coordinates>
<CellData>
<DataArray Name="h" type="Float32" format="ascii">
4.76255
4.76291
4.76365
4.76479
4.76636
4.76834
4.77076
4.7736
4.77689
4.78062
4.78481
4.78946
4.79458
4.80018
4.80626
4.81284
4.81992
4.82751
4.83563
4.84427
4.85345
4.86319
4.87348
4.88434
4.89578
4.90781
4.92044
4.93368
4.94753
4.96201
4.97712
4.99287
5.00927
5.02633
5.04404
5.06243
5.08147
5.10119
5.12158
5.14263
5.16435
5.18674
5.20977
5.23345
5.25777
5.28272
5.30827
5.33442
5.36113
5.38841
5.41622
5.44454
5.47334
5.5026
5.53229
5.56238
5.59285
5.62366
5.65478
5.68618
5.71782
5.74969
5.78174
5.81395
5.84631
5.87881
5.91153
5.94472
5.97909
6.01658
6.06238
6.13018
6.25476
6.51688
7.06501
8.04251
9.35138
10.5982
11.4747
11.9745
12.2307
12.3589
12.4257
12.4642
12.4896
12.5089
12.525
12.5394
12.5526
12.5648
12.5761
12.5866
12.5961
12.6046
12.6121
12.6185
12.6237
12.6276
12.6302
12.6314
</DataArray>
<DataArray Name="hu" type="Float32" format="ascii">
0.267724
0.803408
1.33927
1.87501
2.41054
2.94582
3.48081
4.0154
4.54954
5.08317
5.61621
6.1486
6.68026
7.21112
7.74111
8.27013
8.79815
9.32505
9.85075
10.3752
10.8983
11.42
11.9402
12.4588
12.9757
13.491
14.0045
14.5162
15.0259
15.5337
16.0395
16.5434
17.0451
17.5449
18.0425
18.5382
19.0318
19.5235
20.0133
20.5013
20.9875
21.472
21.9551
22.4368
22.9173
23.3968
23.8754
24.3534
24.8309
25.3083
25.7857
26.2634
26.7416
27.2206
27.7006
28.1818
28.6645
29.1489
29.6352
30.1235
30.6142
31.1072
31.6029
32.1011
32.6021
33.1054
33.6101
34.114
34.6106
35.083
35.4873
35.7087
35.4533
34.0059
29.872
21.0501
7.50158
-6.70397
-17.0395
-22.5475
-24.6555
-24.9084
-24.2619
-23.2004
-21.9503
-20.6139
-19.237
-17.8398
-16.4316
-15.0166
-13.597
-12.1738
-10.7477
-9.31929
-7.88895
-6.45704
-5.02389
-3.58981
-2.15513
-0.718845
</DataArray>
<DataArray Name="B" type="Float32" format="ascii">
-20.8
-20.6
-20.4
-20.2
-20
-19.8
-19.6
-19.4
-19.2
-19
-18.8
-18.6
-18.4
-18.2
-18
-17.8
-17.6
-17.4
-17.2
-17
-16.8
-16.6
-16.4
-16.2
-16
-15.8
-15.6
-15.4
-15.2
-15
-14.8
-14.6
-14.4
-14.2
-14
-13.8
-13.6
-13.4
-13.2
-13
-12.8
-12.6
-12.4
-12.2
-12
-11.8
-11.6
-11.4
-11.2
-11
-10.8
-10.6
-10.4
-10.2
-10
-9.8
-9.6
-9.4
-9.2
-9
-8.8
-8.6
-8.4
-8.2
-8
-7.8
-7.6
-7.4
-7.2
-7
-6.8
-6.6
-6.4
-6.2
-6
-5.8
-5.6
-5.4
-5.2
-5
-4.8
-4.6
-4.4
-4.2
-4
-3.8
-3.6
-3.4
-3.2
-3
-2.8
-2.6
-2.4
-2.2
-2
-1.8
-1.6
-1.4
-1.2
-1
</DataArray>
</CellData>
</Piece>
</RectilinearGrid>
</VTKFile>
