<?xml version="1.0"?>
<VTKFile type="RectilinearGrid">
<RectilinearGrid WholeExtent="0 100 0 0 0 0">
<Piece Extent="0 100 0 0 0 0">
<Coordinates>
<DataArray type="Float32" format="ascii">
0
10
20
30
40
50
60
70
80
90
100
110
120
130
140
150
160
170
180
190
200
210
220
230
240
250
260
270
280
290
300
310
320
330
340
350
360
370
380
390
400
410
420
430
440
450
460
470
480
490
500
510
520
530
540
550
560
570
580
590
600
610
620
630
640
650
660
670
680
690
700
710
720
730
740
750
760
770
780
790
800
810
820
830
840
850
860
870
880
890
900
910
920
930
940
950
960
970
980
990
1000
</DataArray>
<DataArray type="Float32" format="ascii">
0
</DataArray>
<DataArray type="Float32" format="ascii">
0
</DataArray>
</Coordinates>
<CellData>
<DataArray Name="h" type="Float32" format="ascii">
6.84834
6.8486
6.84915
6.85003
6.85124
6.85279
6.85467
6.85688
6.85943
6.86231
6.86553
6.86908
6.87297
6.8772
6.88177
6.88667
6.89191
6.89749
6.90341
6.90967
6.91626
6.92319
6.93046
6.93807
6.94601
6.95429
6.9629
6.97185
6.98113
6.99074
7.00068
7.01096
7.02156
7.03249
7.04376
7.05535
7.06727
7.07952
7.0921
7.105
7.11824
7.13181
7.14571
7.15995
7.17452
7.18944
7.2047
7.22032
7.23629
7.25263
7.26934
7.28642
7.3039
7.32178
7.34008
7.3588
7.37796
7.39758
7.41766
7.43824
7.45931
7.48091
7.50303
7.5257
7.54892
7.5727
7.59703
7.62192
7.64735
7.67332
7.69978
7.72672
7.75407
7.78178
7.80976
7.83794
7.86619
7.89439
7.92239
7.94999
7.97693
8.00284
8.02708
8.04857
8.06523
8.07286
8.06272
8.01616
7.89339
7.61288
7.03076
5.99739
4.6685
3.67468
3.25354
3.12768
3.09368
3.08386
3.08053
3.07935
</DataArray>
<DataArray Name="hu" type="Float32" format="ascii">
0.459005
1.37742
2.29622
3.21498
4.13368
5.05231
5.97084
6.88924
7.80746
8.72548
9.6433
10.5609
11.4781
12.3951
13.3116
14.2278
15.1435
16.0587
16.9733
17.8874
18.8007
19.7133
20.6251
21.536
22.4459
23.3549
24.2627
25.1692
26.0745
26.9783
27.8806
28.7812
29.6801
30.5771
31.472
32.3647
33.2551
34.143
35.0282
35.9106
36.7899
37.6659
38.5385
39.4073
40.2721
41.1327
41.9888
42.84
43.6862
44.5269
45.3619
46.1908
47.0132
47.8288
48.6371
49.4377
50.2304
51.0145
51.7897
52.5556
53.3118
54.0577
54.793
55.5173
56.2302
56.9314
57.6206
58.2975
58.9618
59.6134
60.2521
60.8779
61.4908
62.0909
62.6782
63.253
63.8153
64.3651
64.902
65.4252
65.9326
66.42
66.8784
67.2898
67.6169
67.7808
67.6133
66.7525
64.4346
59.1774
48.7796
32.3928
15.1706
4.8919
1.30574
0.359776
0.119396
0.0506071
0.0237143
0.00722432
</DataArray>
<DataArray Name="B" type="Float32" format="ascii">
-20.8
-20.6
-20.4
-20.2
-20
-19.8
-19.6
-19.4
-19.2
-19
-18.8
-18.6
-18.4
-18.2
-18
-17.8
-17.6
-17.4
-17.2
-17
-16.8
-16.6
-16.4
-16.2
-16
-15.8
-15.6
-15.4
-15.2
-15
-14.8
-14.6
-14.4
-14.2
-14
-13.8
-13.6
-13.4
-13.2
-13
-12.8
-12.6
-12.4
-12.2
-12
-11.8
-11.6
-11.4
-11.2
-11
-10.8
-10.6
-10.4
-10.2
-10
-9.8
-9.6
-9.4
-9.2
-9
-8.8
-8.6
-8.4
-8.2
-8
-7.8
-7.6
-7.4
-7.2
-7
-6.8
-6.6
-6.4
-6.2
-6
-5.8
-5.6
-5.4
-5.2
-5
-4.8
-4.6
-4.4
-4.2
-4
-3.8
-3.6
-3.4
-3.2
-3
-2.8
-2.6
-2.4
-2.2
-2
-1.8
-1.6
-1.4
-1.2
-1
</DataArray>
</CellData>
</Piece>
</RectilinearGrid>
</VTKFile>
