<?xml version="1.0"?>
<VTKFile type="RectilinearGrid">
<RectilinearGrid WholeExtent="0 100 0 0 0 0">
<Piece Extent="0 100 0 0 0 0">
<Coordinates>
<DataArray type="Float32" format="ascii">
0
10
20
30
40
50
60
70
80
90
100
110
120
130
140
150
160
170
180
190
200
210
220
230
240
250
260
270
280
290
300
310
320
330
340
350
360
370
380
390
400
410
420
430
440
450
460
470
480
490
500
510
520
530
540
550
560
570
580
590
600
610
620
630
640
650
660
670
680
690
700
710
720
730
740
750
760
770
780
790
800
810
820
830
840
850
860
870
880
890
900
910
920
930
940
950
960
970
980
990
1000
</DataArray>
<DataArray type="Float32" format="ascii">
0
</DataArray>
<DataArray type="Float32" format="ascii">
0
</DataArray>
</Coordinates>
<CellData>
<DataArray Name="h" type="Float32" format="ascii">
3.89551
3.90357
3.92014
3.94592
3.98182
4.02878
4.08771
4.15936
4.24422
4.34246
4.45397
4.57827
4.71464
4.86213
5.01964
5.18596
5.35979
5.53985
5.72482
5.91341
6.10439
6.2965
6.48855
6.67936
6.86778
7.05267
7.23289
7.40734
7.57491
7.73455
7.88525
8.02606
8.15615
8.27481
8.38155
8.47606
8.55832
8.62857
8.68735
8.73545
8.7739
8.80387
8.82663
8.84346
8.85557
8.86405
8.86982
8.87364
8.87611
8.87766
8.87861
8.87918
8.87951
8.87969
8.87977
8.8798
8.87981
8.87983
8.87987
8.87999
8.88023
8.88064
8.88131
8.88235
8.88384
8.88592
8.88868
8.89222
8.89659
8.90179
8.90776
8.91432
8.92123
8.9281
8.93436
8.93914
8.94095
8.93704
8.92186
8.88386
8.79881
8.61713
8.24566
7.54671
6.44166
5.17635
4.25517
3.81807
3.65956
3.60834
3.59232
3.5873
3.58569
3.58514
3.58493
3.58482
3.58476
3.58471
3.58468
3.58466
</DataArray>
<DataArray Name="hu" type="Float32" format="ascii">
0.163192
0.507171
0.903219
1.38439
1.98177
2.72313
3.63183
4.72597
6.01797
7.51439
9.21626
11.1196
13.2163
15.4948
17.9409
20.5388
23.2711
26.1201
29.0673
32.0941
35.1816
38.3108
41.4623
44.6166
47.7537
50.8532
53.8941
56.8552
59.7148
62.4513
65.0436
67.4714
69.7162
71.7619
73.5958
75.2096
76.6003
77.7701
78.7275
79.4862
80.0645
80.4841
80.7688
80.9425
81.028
81.0458
81.0135
80.9454
80.8526
80.7435
80.6238
80.4978
80.3679
80.2359
80.1029
79.9692
79.8352
79.7008
79.566
79.4305
79.2939
79.1557
79.0151
78.8714
78.7237
78.5709
78.4124
78.2473
78.0753
77.8965
77.7114
77.5205
77.3249
77.1245
76.9169
76.6943
76.4365
76.097
75.5736
74.647
72.8573
69.2887
62.3463
50.1496
32.9915
16.3274
6.12426
1.93251
0.548513
0.126283
0.00212006
-0.031592
-0.0378428
-0.0357339
-0.0310873
-0.0256744
-0.0200336
-0.0143313
-0.00861371
-0.0028767
</DataArray>
<DataArray Name="B" type="Float32" format="ascii">
-20.8
-20.6
-20.4
-20.2
-20
-19.8
-19.6
-19.4
-19.2
-19
-18.8
-18.6
-18.4
-18.2
-18
-17.8
-17.6
-17.4
-17.2
-17
-16.8
-16.6
-16.4
-16.2
-16
-15.8
-15.6
-15.4
-15.2
-15
-14.8
-14.6
-14.4
-14.2
-14
-13.8
-13.6
-13.4
-13.2
-13
-12.8
-12.6
-12.4
-12.2
-12
-11.8
-11.6
-11.4
-11.2
-11
-10.8
-10.6
-10.4
-10.2
-10
-9.8
-9.6
-9.4
-9.2
-9
-8.8
-8.6
-8.4
-8.2
-8
-7.8
-7.6
-7.4
-7.2
-7
-6.8
-6.6
-6.4
-6.2
-6
-5.8
-5.6
-5.4
-5.2
-5
-4.8
-4.6
-4.4
-4.2
-4
-3.8
-3.6
-3.4
-3.2
-3
-2.8
-2.6
-2.4
-2.2
-2
-1.8
-1.6
-1.4
-1.2
-1
</DataArray>
</CellData>
</Piece>
</RectilinearGrid>
</VTKFile>
