<?xml version="1.0"?>
<VTKFile type="RectilinearGrid">
<RectilinearGrid WholeExtent="0 100 0 0 0 0">
<Piece Extent="0 100 0 0 0 0">
<Coordinates>
<DataArray type="Float32" format="ascii">
0
10
20
30
40
50
60
70
80
90
100
110
120
130
140
150
160
170
180
190
200
210
220
230
240
250
260
270
280
290
300
310
320
330
340
350
360
370
380
390
400
410
420
430
440
450
460
470
480
490
500
510
520
530
540
550
560
570
580
590
600
610
620
630
640
650
660
670
680
690
700
710
720
730
740
750
760
770
780
790
800
810
820
830
840
850
860
870
880
890
900
910
920
930
940
950
960
970
980
990
1000
</DataArray>
<DataArray type="Float32" format="ascii">
0
</DataArray>
<DataArray type="Float32" format="ascii">
0
</DataArray>
</Coordinates>
<CellData>
<DataArray Name="h" type="Float32" format="ascii">
14
14
14
14
14
14
14
14
14
14
14
14
14
14
14
14
14
14
14
14
13.9998
13.999
13.995
13.9793
13.9293
13.7975
13.5109
12.9913
12.1972
11.1665
10.0432
9.07248
8.49623
8.3117
8.18808
7.75827
6.84083
5.58008
4.47849
3.85179
3.60066
3.52363
3.50461
3.50075
3.5001
3.50001
3.5
3.5
3.5
3.5
3.5
3.5
3.5
3.5
3.5
3.5
3.5
3.5
3.5
3.5
3.5
3.5
3.5
3.5
3.5
3.5
3.5
3.5
3.5
3.5
3.5
3.5
3.5
3.5
3.5
3.5
3.5
3.5
3.5
3.5
3.5
3.5
3.5
3.5
3.5
3.5
3.5
3.5
3.5
3.5
3.5
3.5
3.50002
3.50012
3.50064
3.50276
3.50956
3.52631
3.55571
3.58817
</DataArray>
<DataArray Name="hu" type="Float32" format="ascii">
-8.03266e-06
-2.7462e-05
-8.34143e-06
1.74448e-05
1.78159e-05
2.12504e-05
-1.57149e-05
-2.24977e-05
-7.25603e-06
-5.34175e-06
9.86672e-06
-3.05246e-05
-2.45732e-05
2.35775e-05
2.67981e-05
1.28233e-05
-4.4515e-06
-5.34457e-06
3.41366e-05
0.000398318
0.00295404
0.017685
0.0870998
0.355711
1.20952
3.43567
8.19717
16.5851
28.8499
43.833
59.0167
71.2144
77.9868
79.3186
76.5366
68.1369
51.5691
30.6838
14.0465
5.30904
1.98953
0.999199
0.757888
0.70932
0.701244
0.700137
0.700008
0.7
0.700006
0.700004
0.699998
0.699997
0.7
0.700001
0.699999
0.699997
0.7
0.700003
0.7
0.7
0.700002
0.700003
0.699998
0.699997
0.7
0.700002
0.700002
0.699998
0.699998
0.699999
0.699998
0.700001
0.700002
0.700001
0.7
0.7
0.700001
0.700002
0.7
0.699999
0.699998
0.699999
0.7
0.700001
0.700001
0.700001
0.700001
0.7
0.7
0.7
0.699998
0.69998
0.699852
0.699094
0.69538
0.680584
0.633771
0.520634
0.325235
0.11065
</DataArray>
<DataArray Name="B" type="Float32" format="ascii">
-20.8
-20.6
-20.4
-20.2
-20
-19.8
-19.6
-19.4
-19.2
-19
-18.8
-18.6
-18.4
-18.2
-18
-17.8
-17.6
-17.4
-17.2
-17
-16.8
-16.6
-16.4
-16.2
-16
-15.8
-15.6
-15.4
-15.2
-15
-14.8
-14.6
-14.4
-14.2
-14
-13.8
-13.6
-13.4
-13.2
-13
-12.8
-12.6
-12.4
-12.2
-12
-11.8
-11.6
-11.4
-11.2
-11
-10.8
-10.6
-10.4
-10.2
-10
-9.8
-9.6
-9.4
-9.2
-9
-8.8
-8.6
-8.4
-8.2
-8
-7.8
-7.6
-7.4
-7.2
-7
-6.8
-6.6
-6.4
-6.2
-6
-5.8
-5.6
-5.4
-5.2
-5
-4.8
-4.6
-4.4
-4.2
-4
-3.8
-3.6
-3.4
-3.2
-3
-2.8
-2.6
-2.4
-2.2
-2
-1.8
-1.6
-1.4
-1.2
-1
</DataArray>
</CellData>
</Piece>
</RectilinearGrid>
</VTKFile>
