<?xml version="1.0"?>
<VTKFile type="RectilinearGrid">
<RectilinearGrid WholeExtent="0 100 0 0 0 0">
<Piece Extent="0 100 0 0 0 0">
<Coordinates>
<DataArray type="Float32" format="ascii">
0
10
20
30
40
50
60
70
80
90
100
110
120
130
140
150
160
170
180
190
200
210
220
230
240
250
260
270
280
290
300
310
320
330
340
350
360
370
380
390
400
410
420
430
440
450
460
470
480
490
500
510
520
530
540
550
560
570
580
590
600
610
620
630
640
650
660
670
680
690
700
710
720
730
740
750
760
770
780
790
800
810
820
830
840
850
860
870
880
890
900
910
920
930
940
950
960
970
980
990
1000
</DataArray>
<DataArray type="Float32" format="ascii">
0
</DataArray>
<DataArray type="Float32" format="ascii">
0
</DataArray>
</Coordinates>
<CellData>
<DataArray Name="h" type="Float32" format="ascii">
12.3189
12.3178
12.3158
12.3128
12.3089
12.3038
12.2978
12.2907
12.2824
12.273
12.2625
12.2507
12.2376
12.2233
12.2075
12.1903
12.1714
12.1505
12.127
12.1
12.0674
12.0258
11.9686
11.8844
11.7533
11.5432
11.2081
10.6962
9.98196
9.11435
8.22996
7.47934
6.93452
6.57881
6.35723
6.21772
6.12435
6.0556
5.99953
5.9498
5.9031
5.85774
5.81289
5.76813
5.72326
5.67819
5.63288
5.58734
5.54157
5.49558
5.44941
5.40309
5.35663
5.31008
5.26347
5.21682
5.17016
5.12353
5.07695
5.03043
4.98399
4.93765
4.89141
4.84526
4.79922
4.75326
4.70739
4.66158
4.61583
4.57011
4.52441
4.47871
4.43299
4.38725
4.34146
4.29562
4.24972
4.20376
4.15773
4.11163
4.06546
4.01924
3.97299
3.92671
3.88045
3.83424
3.78814
3.74225
3.69669
3.65162
3.6073
3.56406
3.52233
3.48269
3.44584
3.4126
3.38391
3.36078
3.34421
3.33535
</DataArray>
<DataArray Name="hu" type="Float32" format="ascii">
0.726935
2.18071
3.63298
5.08185
6.52603
7.96408
9.39467
10.8165
12.2281
13.6282
15.0153
16.3882
17.7453
19.085
20.4055
21.7043
22.9776
24.2194
25.4191
26.5574
27.5995
28.4816
29.0889
29.2184
28.5248
26.4613
22.2755
15.2122
5.09852
-6.9289
-18.5415
-27.627
-33.5032
-36.703
-38.1184
-38.4852
-38.2787
-37.7728
-37.1161
-36.3867
-35.6247
-34.8505
-34.0741
-33.3006
-32.5324
-31.7707
-31.0157
-30.2678
-29.5267
-28.7925
-28.0648
-27.3434
-26.628
-25.9184
-25.2142
-24.5153
-23.8213
-23.132
-22.4474
-21.7671
-21.0913
-20.4199
-19.7528
-19.0902
-18.4323
-17.7791
-17.1309
-16.488
-15.8507
-15.2191
-14.5936
-13.9745
-13.3621
-12.7566
-12.1585
-11.5679
-10.9851
-10.4105
-9.84439
-9.28697
-8.73862
-8.19965
-7.67041
-7.15128
-6.64263
-6.14484
-5.65828
-5.18329
-4.72007
-4.2687
-3.82899
-3.40045
-2.98218
-2.57283
-2.17068
-1.77371
-1.37979
-0.987029
-0.593997
-0.198659
</DataArray>
<DataArray Name="B" type="Float32" format="ascii">
-20.8
-20.6
-20.4
-20.2
-20
-19.8
-19.6
-19.4
-19.2
-19
-18.8
-18.6
-18.4
-18.2
-18
-17.8
-17.6
-17.4
-17.2
-17
-16.8
-16.6
-16.4
-16.2
-16
-15.8
-15.6
-15.4
-15.2
-15
-14.8
-14.6
-14.4
-14.2
-14
-13.8
-13.6
-13.4
-13.2
-13
-12.8
-12.6
-12.4
-12.2
-12
-11.8
-11.6
-11.4
-11.2
-11
-10.8
-10.6
-10.4
-10.2
-10
-9.8
-9.6
-9.4
-9.2
-9
-8.8
-8.6
-8.4
-8.2
-8
-7.8
-7.6
-7.4
-7.2
-7
-6.8
-6.6
-6.4
-6.2
-6
-5.8
-5.6
-5.4
-5.2
-5
-4.8
-4.6
-4.4
-4.2
-4
-3.8
-3.6
-3.4
-3.2
-3
-2.8
-2.6
-2.4
-2.2
-2
-1.8
-1.6
-1.4
-1.2
-1
</DataArray>
</CellData>
</Piece>
</RectilinearGrid>
</VTKFile>
