<?xml version="1.0"?>
<VTKFile type="RectilinearGrid">
<RectilinearGrid WholeExtent="0 100 0 0 0 0">
<Piece Extent="0 100 0 0 0 0">
<Coordinates>
<DataArray type="Float32" format="ascii">
0
10
20
30
40
50
60
70
80
90
100
110
120
130
140
150
160
170
180
190
200
210
220
230
240
250
260
270
280
290
300
310
320
330
340
350
360
370
380
390
400
410
420
430
440
450
460
470
480
490
500
510
520
530
540
550
560
570
580
590
600
610
620
630
640
650
660
670
680
690
700
710
720
730
740
750
760
770
780
790
800
810
820
830
840
850
860
870
880
890
900
910
920
930
940
950
960
970
980
990
1000
</DataArray>
<DataArray type="Float32" format="ascii">
0
</DataArray>
<DataArray type="Float32" format="ascii">
0
</DataArray>
</Coordinates>
<CellData>
<DataArray Name="h" type="Float32" format="ascii">
3.86901
3.87351
3.88294
3.89802
3.91974
3.94928
3.98787
4.03673
4.09694
4.16932
4.2544
4.35236
4.46307
4.58607
4.72065
4.86588
5.0207
5.18394
5.35439
5.53081
5.71197
5.89667
6.08371
6.27197
6.4603
6.64763
6.83287
7.01497
7.19289
7.36559
7.53205
7.69129
7.84234
7.9843
8.11635
8.23777
8.34799
8.44663
8.53354
8.60879
8.67272
8.72594
8.76929
8.80377
8.83053
8.85077
8.86569
8.87638
8.88382
8.88886
8.89218
8.89429
8.89559
8.89636
8.8968
8.89706
8.89722
8.89736
8.89756
8.89787
8.89838
8.89915
8.9003
8.90191
8.90411
8.90698
8.91059
8.915
8.92019
8.9261
8.93259
8.93945
8.94643
8.9532
8.95941
8.96465
8.96842
8.96995
8.9679
8.95951
8.93902
8.89399
8.79796
8.59646
8.18759
7.4258
6.25162
4.98165
4.13304
3.76403
3.63908
3.60069
3.58915
3.58565
3.58456
3.58419
3.58405
3.58398
3.58394
3.58392
</DataArray>
<DataArray Name="hu" type="Float32" format="ascii">
0.0758371
0.239408
0.438706
0.697843
1.04129
1.49329
2.07691
2.81319
3.71996
4.81104
6.09566
7.5781
9.2579
11.1303
13.1869
15.4162
17.8048
20.3374
22.9978
25.7692
28.6345
31.5763
34.5773
37.6198
40.6861
43.7582
46.8179
49.8466
52.8252
55.7341
58.5536
61.2637
63.8446
66.2773
68.5436
70.6275
72.5154
74.1976
75.6683
76.9267
77.9776
78.8305
79.5001
80.0048
80.3658
80.6053
80.7456
80.8075
80.8095
80.7674
80.6937
80.5983
80.4886
80.3695
80.2446
80.1161
79.9852
79.8528
79.7189
79.5835
79.446
79.3061
79.1628
79.0155
78.8632
78.7052
78.541
78.3704
78.1935
78.0112
77.8245
77.6351
77.4449
77.2557
77.0689
76.8839
76.6973
76.4987
76.2639
75.9401
75.4135
74.4412
72.514
68.6201
61.0267
47.8529
30.0047
13.8424
4.82555
1.43322
0.383946
0.0797879
-0.00493634
-0.0257607
-0.0278903
-0.0245201
-0.0195321
-0.0140739
-0.00848059
-0.00283461
</DataArray>
<DataArray Name="B" type="Float32" format="ascii">
-20.8
-20.6
-20.4
-20.2
-20
-19.8
-19.6
-19.4
-19.2
-19
-18.8
-18.6
-18.4
-18.2
-18
-17.8
-17.6
-17.4
-17.2
-17
-16.8
-16.6
-16.4
-16.2
-16
-15.8
-15.6
-15.4
-15.2
-15
-14.8
-14.6
-14.4
-14.2
-14
-13.8
-13.6
-13.4
-13.2
-13
-12.8
-12.6
-12.4
-12.2
-12
-11.8
-11.6
-11.4
-11.2
-11
-10.8
-10.6
-10.4
-10.2
-10
-9.8
-9.6
-9.4
-9.2
-9
-8.8
-8.6
-8.4
-8.2
-8
-7.8
-7.6
-7.4
-7.2
-7
-6.8
-6.6
-6.4
-6.2
-6
-5.8
-5.6
-5.4
-5.2
-5
-4.8
-4.6
-4.4
-4.2
-4
-3.8
-3.6
-3.4
-3.2
-3
-2.8
-2.6
-2.4
-2.2
-2
-1.8
-1.6
-1.4
-1.2
-1
</DataArray>
</CellData>
</Piece>
</RectilinearGrid>
</VTKFile>
