<?xml version="1.0"?>
<VTKFile type="RectilinearGrid">
<RectilinearGrid WholeExtent="0 100 0 0 0 0">
<Piece Extent="0 100 0 0 0 0">
<Coordinates>
<DataArray type="Float32" format="ascii">
0
10
20
30
40
50
60
70
80
90
100
110
120
130
140
150
160
170
180
190
200
210
220
230
240
250
260
270
280
290
300
310
320
330
340
350
360
370
380
390
400
410
420
430
440
450
460
470
480
490
500
510
520
530
540
550
560
570
580
590
600
610
620
630
640
650
660
670
680
690
700
710
720
730
740
750
760
770
780
790
800
810
820
830
840
850
860
870
880
890
900
910
920
930
940
950
960
970
980
990
1000
</DataArray>
<DataArray type="Float32" format="ascii">
0
</DataArray>
<DataArray type="Float32" format="ascii">
0
</DataArray>
</Coordinates>
<CellData>
<DataArray Name="h" type="Float32" format="ascii">
4.11668
4.11714
4.11809
4.11955
4.12153
4.12402
4.12704
4.1306
4.1347
4.13933
4.14452
4.15026
4.15656
4.16342
4.17085
4.17884
4.18741
4.19654
4.20625
4.21653
4.22738
4.2388
4.25078
4.26334
4.27646
4.29013
4.30436
4.31913
4.33444
4.35028
4.36664
4.38352
4.4009
4.41877
4.43713
4.45596
4.47524
4.49498
4.51515
4.53574
4.55673
4.57813
4.59992
4.62209
4.64466
4.66764
4.69112
4.71531
4.74065
4.7682
4.80034
4.84239
4.90603
5.01618
5.22197
5.60491
6.2538
7.16958
8.17864
9.03506
9.61846
9.96103
10.1472
10.2462
10.3003
10.3319
10.3526
10.3679
10.3806
10.3922
10.4032
10.4139
10.4246
10.4354
10.4461
10.4569
10.4677
10.4786
10.4894
10.5002
10.5109
10.5216
10.5322
10.5426
10.5529
10.5629
10.5726
10.5821
10.5912
10.5999
10.6082
10.6159
10.6231
10.6296
10.6354
10.6403
10.6444
10.6475
10.6495
10.6504
</DataArray>
<DataArray Name="hu" type="Float32" format="ascii">
0.175326
0.526156
0.877101
1.22794
1.57864
1.92914
2.27939
2.62938
2.97906
3.32838
3.67731
4.02584
4.37396
4.72163
5.06885
5.41564
5.76199
6.10794
6.45351
6.79874
7.14369
7.4884
7.83297
8.17748
8.52201
8.86668
9.2116
9.55689
9.9027
10.2492
10.5964
10.9446
11.294
11.6446
11.9967
12.3504
12.706
13.0635
13.4231
13.785
14.1495
14.5165
14.8862
15.2586
15.6338
16.0113
16.3901
16.7681
17.1399
17.4939
17.8039
18.0116
17.9894
17.4634
15.8782
12.245
5.28149
-5.52364
-18.3697
-29.7981
-37.5689
-41.742
-43.4468
-43.7383
-43.2891
-42.466
-41.4559
-40.3515
-39.1985
-38.0191
-36.8245
-35.6201
-34.4089
-33.1922
-31.971
-30.7457
-29.5168
-28.2843
-27.0486
-25.8098
-24.568
-23.3235
-22.0764
-20.8269
-19.5751
-18.3213
-17.0655
-15.8079
-14.5488
-13.2882
-12.0263
-10.7632
-9.49913
-8.23424
-6.96867
-5.7026
-4.43617
-3.16953
-1.90279
-0.634712
</DataArray>
<DataArray Name="B" type="Float32" format="ascii">
-20.8
-20.6
-20.4
-20.2
-20
-19.8
-19.6
-19.4
-19.2
-19
-18.8
-18.6
-18.4
-18.2
-18
-17.8
-17.6
-17.4
-17.2
-17
-16.8
-16.6
-16.4
-16.2
-16
-15.8
-15.6
-15.4
-15.2
-15
-14.8
-14.6
-14.4
-14.2
-14
-13.8
-13.6
-13.4
-13.2
-13
-12.8
-12.6
-12.4
-12.2
-12
-11.8
-11.6
-11.4
-11.2
-11
-10.8
-10.6
-10.4
-10.2
-10
-9.8
-9.6
-9.4
-9.2
-9
-8.8
-8.6
-8.4
-8.2
-8
-7.8
-7.6
-7.4
-7.2
-7
-6.8
-6.6
-6.4
-6.2
-6
-5.8
-5.6
-5.4
-5.2
-5
-4.8
-4.6
-4.4
-4.2
-4
-3.8
-3.6
-3.4
-3.2
-3
-2.8
-2.6
-2.4
-2.2
-2
-1.8
-1.6
-1.4
-1.2
-1
</DataArray>
</CellData>
</Piece>
</RectilinearGrid>
</VTKFile>
