<?xml version="1.0"?>
<VTKFile type="RectilinearGrid">
<RectilinearGrid WholeExtent="0 100 0 0 0 0">
<Piece Extent="0 100 0 0 0 0">
<Coordinates>
<DataArray type="Float32" format="ascii">
0
10
20
30
40
50
60
70
80
90
100
110
120
130
140
150
160
170
180
190
200
210
220
230
240
250
260
270
280
290
300
310
320
330
340
350
360
370
380
390
400
410
420
430
440
450
460
470
480
490
500
510
520
530
540
550
560
570
580
590
600
610
620
630
640
650
660
670
680
690
700
710
720
730
740
750
760
770
780
790
800
810
820
830
840
850
860
870
880
890
900
910
920
930
940
950
960
970
980
990
1000
</DataArray>
<DataArray type="Float32" format="ascii">
0
</DataArray>
<DataArray type="Float32" format="ascii">
0
</DataArray>
</Coordinates>
<CellData>
<DataArray Name="h" type="Float32" format="ascii">
6.9688
6.96905
6.96959
6.97047
6.97167
6.9732
6.97506
6.97725
6.97977
6.98263
6.98581
6.98933
6.99317
6.99735
7.00187
7.00671
7.01189
7.0174
7.02324
7.0294
7.0359
7.04273
7.04989
7.05737
7.06518
7.07331
7.08177
7.09054
7.09964
7.10905
7.11878
7.12883
7.13919
7.14986
7.16084
7.17213
7.18373
7.19564
7.20785
7.22036
7.23318
7.2463
7.25972
7.27345
7.28748
7.30181
7.31646
7.33142
7.34669
7.36229
7.37821
7.39446
7.41105
7.42799
7.4453
7.46298
7.48104
7.49949
7.51836
7.53766
7.5574
7.5776
7.59828
7.61945
7.64112
7.6633
7.686
7.70921
7.73294
7.75718
7.7819
7.80709
7.8327
7.85868
7.88494
7.91141
7.93794
7.96437
7.99048
8.0159
8.04006
8.06195
8.07967
8.08943
8.08343
8.04521
7.93979
7.69542
7.18226
6.2464
4.95655
3.86392
3.33184
3.15484
3.10362
3.08813
3.08246
3.07974
3.07823
3.0775
</DataArray>
<DataArray Name="hu" type="Float32" format="ascii">
0.468814
1.40687
2.34533
3.28374
4.22208
5.16034
6.09849
7.03649
7.9743
8.91192
9.8493
10.7864
11.7232
12.6596
13.5956
14.5312
15.4663
16.4009
17.3349
18.2682
19.2008
20.1326
21.0636
21.9936
22.9226
23.8505
24.7773
25.7027
26.6268
27.5494
28.4703
29.3896
30.307
31.2224
32.1357
33.0468
33.9554
34.8614
35.7646
36.6648
37.5619
38.4556
39.3457
40.2319
41.1141
41.9918
42.8649
43.733
44.5959
45.4531
46.3044
47.1494
47.9878
48.819
49.6427
50.4585
51.2659
52.0646
52.8539
53.6334
54.4028
55.1613
55.9087
56.6444
57.368
58.079
58.777
59.4617
60.1328
60.7899
61.4328
62.0612
62.6752
63.2745
63.8591
64.4288
64.9832
65.5214
66.0416
66.5399
67.0084
67.4309
67.7742
67.9689
67.8674
67.1546
65.167
60.6014
51.4029
36.2299
18.7389
6.7655
1.95555
0.55685
0.183115
0.0778296
0.0422272
0.0254166
0.0140999
0.00455341
</DataArray>
<DataArray Name="B" type="Float32" format="ascii">
-20.8
-20.6
-20.4
-20.2
-20
-19.8
-19.6
-19.4
-19.2
-19
-18.8
-18.6
-18.4
-18.2
-18
-17.8
-17.6
-17.4
-17.2
-17
-16.8
-16.6
-16.4
-16.2
-16
-15.8
-15.6
-15.4
-15.2
-15
-14.8
-14.6
-14.4
-14.2
-14
-13.8
-13.6
-13.4
-13.2
-13
-12.8
-12.6
-12.4
-12.2
-12
-11.8
-11.6
-11.4
-11.2
-11
-10.8
-10.6
-10.4
-10.2
-10
-9.8
-9.6
-9.4
-9.2
-9
-8.8
-8.6
-8.4
-8.2
-8
-7.8
-7.6
-7.4
-7.2
-7
-6.8
-6.6
-6.4
-6.2
-6
-5.8
-5.6
-5.4
-5.2
-5
-4.8
-4.6
-4.4
-4.2
-4
-3.8
-3.6
-3.4
-3.2
-3
-2.8
-2.6
-2.4
-2.2
-2
-1.8
-1.6
-1.4
-1.2
-1
</DataArray>
</CellData>
</Piece>
</RectilinearGrid>
</VTKFile>
