<?xml version="1.0"?>
<VTKFile type="RectilinearGrid">
<RectilinearGrid WholeExtent="0 100 0 0 0 0">
<Piece Extent="0 100 0 0 0 0">
<Coordinates>
<DataArray type="Float32" format="ascii">
0
10
20
30
40
50
60
70
80
90
100
110
120
130
140
150
160
170
180
190
200
210
220
230
240
250
260
270
280
290
300
310
320
330
340
350
360
370
380
390
400
410
420
430
440
450
460
470
480
490
500
510
520
530
540
550
560
570
580
590
600
610
620
630
640
650
660
670
680
690
700
710
720
730
740
750
760
770
780
790
800
810
820
830
840
850
860
870
880
890
900
910
920
930
940
950
960
970
980
990
1000
</DataArray>
<DataArray type="Float32" format="ascii">
0
</DataArray>
<DataArray type="Float32" format="ascii">
0
</DataArray>
</Coordinates>
<CellData>
<DataArray Name="h" type="Float32" format="ascii">
3.84622
3.84618
3.84611
3.846
3.84585
3.84567
3.84544
3.84518
3.84487
3.84452
3.84413
3.84369
3.84321
3.84268
3.84211
3.84148
3.84081
3.84008
3.83931
3.83849
3.83763
3.83673
3.83581
3.83491
3.83406
3.83334
3.83283
3.83268
3.8331
3.83435
3.83679
3.84086
3.84712
3.85621
3.86888
3.88591
3.90813
3.93636
3.97134
4.01373
4.06404
4.1226
4.18958
4.26495
4.34851
4.43992
4.53872
4.64434
4.75616
4.87352
4.99572
5.12209
5.25196
5.3847
5.5197
5.65639
5.79425
5.9328
6.07158
6.21018
6.34824
6.48539
6.62132
6.75572
6.88831
7.01882
7.14696
7.27249
7.39515
7.51467
7.6308
7.74327
7.85183
7.95622
8.0562
8.15157
8.24229
8.32873
8.41248
8.49876
8.60328
8.77096
9.11814
9.87627
11.2613
13.0616
14.661
15.7012
16.2581
16.5317
16.6655
16.7347
16.7739
16.7984
16.8147
16.8261
16.8339
16.8392
16.8424
16.8439
</DataArray>
<DataArray Name="hu" type="Float32" format="ascii">
0.00628818
0.0188669
0.0314537
0.0440313
0.0565964
0.0691584
0.081716
0.0942685
0.106809
0.11933
0.131813
0.144264
0.156673
0.169013
0.18129
0.193507
0.205636
0.217639
0.229528
0.241304
0.252974
0.264619
0.276387
0.288565
0.30161
0.316274
0.333695
0.355535
0.384188
0.422924
0.476064
0.549094
0.648719
0.782814
0.960284
1.19076
1.4842
1.85035
2.29822
2.83566
3.46889
4.20227
5.03815
5.97695
7.01733
8.15643
9.39015
10.7135
12.1209
13.6063
15.1636
16.7866
18.4694
20.2059
21.9906
23.8178
25.6821
27.5785
29.5019
31.4474
33.4101
35.3853
37.3684
39.3546
41.3394
43.3182
45.2864
47.2394
49.1726
51.0813
52.9607
54.8061
56.6127
58.3755
60.0894
61.7491
63.3481
64.8774
66.3196
67.6332
68.7064
69.2263
68.3304
63.9455
53.0269
35.7453
18.379
6.55379
0.530894
-1.89265
-2.57711
-2.53946
-2.24462
-1.88421
-1.52929
-1.20121
-0.902013
-0.626969
-0.369371
-0.122026
</DataArray>
<DataArray Name="B" type="Float32" format="ascii">
-20.8
-20.6
-20.4
-20.2
-20
-19.8
-19.6
-19.4
-19.2
-19
-18.8
-18.6
-18.4
-18.2
-18
-17.8
-17.6
-17.4
-17.2
-17
-16.8
-16.6
-16.4
-16.2
-16
-15.8
-15.6
-15.4
-15.2
-15
-14.8
-14.6
-14.4
-14.2
-14
-13.8
-13.6
-13.4
-13.2
-13
-12.8
-12.6
-12.4
-12.2
-12
-11.8
-11.6
-11.4
-11.2
-11
-10.8
-10.6
-10.4
-10.2
-10
-9.8
-9.6
-9.4
-9.2
-9
-8.8
-8.6
-8.4
-8.2
-8
-7.8
-7.6
-7.4
-7.2
-7
-6.8
-6.6
-6.4
-6.2
-6
-5.8
-5.6
-5.4
-5.2
-5
-4.8
-4.6
-4.4
-4.2
-4
-3.8
-3.6
-3.4
-3.2
-3
-2.8
-2.6
-2.4
-2.2
-2
-1.8
-1.6
-1.4
-1.2
-1
</DataArray>
</CellData>
</Piece>
</RectilinearGrid>
</VTKFile>
