<?xml version="1.0"?>
<VTKFile type="RectilinearGrid">
<RectilinearGrid WholeExtent="0 100 0 0 0 0">
<Piece Extent="0 100 0 0 0 0">
<Coordinates>
<DataArray type="Float32" format="ascii">
0
10
20
30
40
50
60
70
80
90
100
110
120
130
140
150
160
170
180
190
200
210
220
230
240
250
260
270
280
290
300
310
320
330
340
350
360
370
380
390
400
410
420
430
440
450
460
470
480
490
500
510
520
530
540
550
560
570
580
590
600
610
620
630
640
650
660
670
680
690
700
710
720
730
740
750
760
770
780
790
800
810
820
830
840
850
860
870
880
890
900
910
920
930
940
950
960
970
980
990
1000
</DataArray>
<DataArray type="Float32" format="ascii">
0
</DataArray>
<DataArray type="Float32" format="ascii">
0
</DataArray>
</Coordinates>
<CellData>
<DataArray Name="h" type="Float32" format="ascii">
13.0203
13.0185
13.0149
13.0096
13.0025
12.9936
12.9828
12.97
12.9552
12.9381
12.9181
12.8945
12.8654
12.828
12.7764
12.7006
12.5832
12.3958
12.0972
11.6386
10.9871
10.1683
9.29022
8.49863
7.88932
7.47248
7.20561
7.03693
6.9262
6.84756
6.78593
6.733
6.68435
6.63766
6.59176
6.54606
6.50026
6.45423
6.40791
6.36127
6.31431
6.26704
6.21947
6.17165
6.12357
6.07528
6.02681
5.97818
5.92943
5.88059
5.83169
5.78276
5.73382
5.6849
5.636
5.58715
5.53836
5.48963
5.44095
5.39234
5.34377
5.29524
5.24673
5.19823
5.14971
5.10117
5.05259
5.00394
4.9552
4.90637
4.85743
4.80836
4.75915
4.70978
4.66025
4.61055
4.56067
4.51061
4.46035
4.4099
4.35925
4.30841
4.25739
4.20622
4.15493
4.10362
4.05237
4.00138
3.95086
3.90117
3.85274
3.8061
3.7619
3.72086
3.68373
3.65127
3.62415
3.60296
3.58814
3.58034
</DataArray>
<DataArray Name="hu" type="Float32" format="ascii">
0.650158
1.95005
3.2478
4.54124
5.82856
7.10783
8.37691
9.63312
10.8728
12.0901
13.2755
14.4118
15.4678
16.3869
17.0665
17.3255
16.8559
15.1673
11.569
5.30891
-3.97113
-15.5537
-27.4692
-37.4983
-44.4935
-48.6115
-50.6311
-51.3342
-51.2812
-50.8168
-50.1369
-49.3479
-48.506
-47.6402
-46.7655
-45.8895
-45.0158
-44.1464
-43.2823
-42.4238
-41.5712
-40.7245
-39.8837
-39.0486
-38.2191
-37.395
-36.5761
-35.7621
-34.9528
-34.148
-33.3475
-32.551
-31.7584
-30.9696
-30.1845
-29.4031
-28.6253
-27.8513
-27.0811
-26.3149
-25.5528
-24.795
-24.0419
-23.2935
-22.5503
-21.8123
-21.0799
-20.3534
-19.6329
-18.9187
-18.211
-17.5101
-16.816
-16.129
-15.4493
-14.777
-14.1124
-13.4556
-12.8067
-12.166
-11.5336
-10.9097
-10.2944
-9.68785
-9.08993
-8.5005
-7.91916
-7.3452
-6.7775
-6.21446
-5.65398
-5.09346
-4.52997
-3.96048
-3.38215
-2.79278
-2.19114
-1.57734
-0.952982
-0.31926
</DataArray>
<DataArray Name="B" type="Float32" format="ascii">
-20.8
-20.6
-20.4
-20.2
-20
-19.8
-19.6
-19.4
-19.2
-19
-18.8
-18.6
-18.4
-18.2
-18
-17.8
-17.6
-17.4
-17.2
-17
-16.8
-16.6
-16.4
-16.2
-16
-15.8
-15.6
-15.4
-15.2
-15
-14.8
-14.6
-14.4
-14.2
-14
-13.8
-13.6
-13.4
-13.2
-13
-12.8
-12.6
-12.4
-12.2
-12
-11.8
-11.6
-11.4
-11.2
-11
-10.8
-10.6
-10.4
-10.2
-10
-9.8
-9.6
-9.4
-9.2
-9
-8.8
-8.6
-8.4
-8.2
-8
-7.8
-7.6
-7.4
-7.2
-7
-6.8
-6.6
-6.4
-6.2
-6
-5.8
-5.6
-5.4
-5.2
-5
-4.8
-4.6
-4.4
-4.2
-4
-3.8
-3.6
-3.4
-3.2
-3
-2.8
-2.6
-2.4
-2.2
-2
-1.8
-1.6
-1.4
-1.2
-1
</DataArray>
</CellData>
</Piece>
</RectilinearGrid>
</VTKFile>
