<?xml version="1.0"?>
<VTKFile type="RectilinearGrid">
<RectilinearGrid WholeExtent="0 100 0 0 0 0">
<Piece Extent="0 100 0 0 0 0">
<Coordinates>
<DataArray type="Float32" format="ascii">
0
10
20
30
40
50
60
70
80
90
100
110
120
130
140
150
160
170
180
190
200
210
220
230
240
250
260
270
280
290
300
310
320
330
340
350
360
370
380
390
400
410
420
430
440
450
460
470
480
490
500
510
520
530
540
550
560
570
580
590
600
610
620
630
640
650
660
670
680
690
700
710
720
730
740
750
760
770
780
790
800
810
820
830
840
850
860
870
880
890
900
910
920
930
940
950
960
970
980
990
1000
</DataArray>
<DataArray type="Float32" format="ascii">
0
</DataArray>
<DataArray type="Float32" format="ascii">
0
</DataArray>
</Coordinates>
<CellData>
<DataArray Name="h" type="Float32" format="ascii">
3.85899
3.86158
3.8671
3.87616
3.88963
3.90858
3.93428
3.96803
4.01112
4.06472
4.1298
4.20702
4.29675
4.39901
4.51351
4.63968
4.77674
4.92372
5.07955
5.24308
5.41314
5.58854
5.76812
5.95073
6.13527
6.32066
6.50585
6.68982
6.87156
7.05009
7.22443
7.39361
7.55668
7.71271
7.8608
8.0001
8.12983
8.24932
8.35804
8.4556
8.54183
8.6168
8.6808
8.73436
8.77826
8.81342
8.84093
8.86191
8.8775
8.88878
8.89671
8.90214
8.90574
8.90806
8.90953
8.91045
8.91107
8.91155
8.91203
8.91264
8.91349
8.91467
8.9163
8.91848
8.9213
8.92485
8.92914
8.93417
8.93989
8.94618
8.95285
8.95966
8.96635
8.97263
8.97821
8.98284
8.98626
8.9882
8.98823
8.98557
8.9785
8.96332
8.93192
8.86681
8.73081
8.44909
7.8917
6.91653
5.60603
4.47732
3.88914
3.67577
3.61038
3.59131
3.58576
3.58411
3.5836
3.58342
3.58335
3.58332
</DataArray>
<DataArray Name="hu" type="Float32" format="ascii">
0.0364483
0.117188
0.221811
0.367361
0.572291
0.856357
1.24023
1.74475
2.3898
3.19321
4.16968
5.32988
6.68004
8.22185
9.95273
11.8663
13.953
16.2008
18.5961
21.1239
23.7686
26.514
29.3439
32.2419
35.1917
38.1766
41.1802
44.1855
47.1756
50.1329
53.0395
55.8772
58.6276
61.2718
63.7914
66.1684
68.3859
70.4285
72.2836
73.9415
75.3964
76.6473
77.6978
78.5565
79.2366
79.755
80.1312
80.3865
80.5418
80.6173
80.6311
80.5988
80.533
80.4438
80.3385
80.2224
80.0992
79.9711
79.8392
79.7041
79.5658
79.4238
79.2776
79.1265
78.9699
78.8073
78.6386
78.464
78.2841
78.1002
77.9137
77.7267
77.5414
77.3597
77.1834
77.0134
76.8492
76.6878
76.5218
76.3346
76.0908
75.715
75.0456
73.7389
71.0816
65.7137
55.5898
39.5283
21.2
8.19379
2.5071
0.684019
0.164289
0.0220532
-0.0141262
-0.0204235
-0.0182306
-0.013613
-0.00830296
-0.00278613
</DataArray>
<DataArray Name="B" type="Float32" format="ascii">
-20.8
-20.6
-20.4
-20.2
-20
-19.8
-19.6
-19.4
-19.2
-19
-18.8
-18.6
-18.4
-18.2
-18
-17.8
-17.6
-17.4
-17.2
-17
-16.8
-16.6
-16.4
-16.2
-16
-15.8
-15.6
-15.4
-15.2
-15
-14.8
-14.6
-14.4
-14.2
-14
-13.8
-13.6
-13.4
-13.2
-13
-12.8
-12.6
-12.4
-12.2
-12
-11.8
-11.6
-11.4
-11.2
-11
-10.8
-10.6
-10.4
-10.2
-10
-9.8
-9.6
-9.4
-9.2
-9
-8.8
-8.6
-8.4
-8.2
-8
-7.8
-7.6
-7.4
-7.2
-7
-6.8
-6.6
-6.4
-6.2
-6
-5.8
-5.6
-5.4
-5.2
-5
-4.8
-4.6
-4.4
-4.2
-4
-3.8
-3.6
-3.4
-3.2
-3
-2.8
-2.6
-2.4
-2.2
-2
-1.8
-1.6
-1.4
-1.2
-1
</DataArray>
</CellData>
</Piece>
</RectilinearGrid>
</VTKFile>
