<?xml version="1.0"?>
<VTKFile type="RectilinearGrid">
<RectilinearGrid WholeExtent="0 100 0 0 0 0">
<Piece Extent="0 100 0 0 0 0">
<Coordinates>
<DataArray type="Float32" format="ascii">
0
10
20
30
40
50
60
70
80
90
100
110
120
130
140
150
160
170
180
190
200
210
220
230
240
250
260
270
280
290
300
310
320
330
340
350
360
370
380
390
400
410
420
430
440
450
460
470
480
490
500
510
520
530
540
550
560
570
580
590
600
610
620
630
640
650
660
670
680
690
700
710
720
730
740
750
760
770
780
790
800
810
820
830
840
850
860
870
880
890
900
910
920
930
940
950
960
970
980
990
1000
</DataArray>
<DataArray type="Float32" format="ascii">
0
</DataArray>
<DataArray type="Float32" format="ascii">
0
</DataArray>
</Coordinates>
<CellData>
<DataArray Name="h" type="Float32" format="ascii">
13.1804
13.1784
13.1744
13.1684
13.1604
13.1503
13.138
13.1231
13.1054
13.0838
13.0569
13.0215
12.9723
12.8993
12.7855
12.6034
12.3124
11.8642
11.2252
10.417
9.54238
8.74511
8.12454
7.69611
7.4203
7.2458
7.13168
7.05123
6.98873
6.93544
6.88668
6.84001
6.79417
6.74853
6.7028
6.6568
6.61049
6.56382
6.51681
6.46946
6.42178
6.37379
6.32553
6.27701
6.22827
6.17935
6.13027
6.08106
6.03176
5.98239
5.93299
5.88357
5.83417
5.78478
5.73544
5.68613
5.63688
5.58768
5.53852
5.48939
5.44029
5.39119
5.34209
5.29296
5.24379
5.19457
5.14526
5.09586
5.04635
4.99672
4.94694
4.89701
4.84692
4.79666
4.74621
4.69557
4.64472
4.59367
4.5424
4.49092
4.43922
4.38731
4.33521
4.28295
4.2306
4.17824
4.12603
4.07417
4.02298
3.97283
3.92424
3.87778
3.83415
3.79405
3.75818
3.7272
3.70162
3.68185
3.66815
3.66097
</DataArray>
<DataArray Name="hu" type="Float32" format="ascii">
0.618845
1.85605
3.09097
4.32131
5.54487
6.75899
7.96004
9.14234
10.2964
11.4055
12.4391
13.342
14.0139
14.2775
13.831
12.1929
8.68275
2.54944
-6.59376
-18.1007
-30.074
-40.2904
-47.5214
-51.8443
-54.0063
-54.794
-54.7841
-54.3365
-53.6577
-52.8607
-52.0053
-51.1229
-50.2295
-49.3331
-48.4381
-47.5464
-46.6592
-45.777
-44.9001
-44.0286
-43.1625
-42.3018
-41.4462
-40.5958
-39.7502
-38.9093
-38.073
-37.2409
-36.4128
-35.5886
-34.7681
-33.9512
-33.1378
-32.3278
-31.5213
-30.7182
-29.9186
-29.1227
-28.3306
-27.5424
-26.7585
-25.9791
-25.2043
-24.4345
-23.6699
-22.9108
-22.1574
-21.4098
-20.6685
-19.9334
-19.2049
-18.4832
-17.7683
-17.0605
-16.3599
-15.6667
-14.981
-14.3029
-13.6327
-12.9705
-12.3164
-11.6705
-11.0328
-10.4034
-9.78192
-9.16804
-8.56101
-7.9597
-7.36249
-6.76725
-6.1713
-5.57156
-4.96473
-4.34762
-3.71752
-3.07255
-2.41209
-1.73694
-1.04949
-0.351577
</DataArray>
<DataArray Name="B" type="Float32" format="ascii">
-20.8
-20.6
-20.4
-20.2
-20
-19.8
-19.6
-19.4
-19.2
-19
-18.8
-18.6
-18.4
-18.2
-18
-17.8
-17.6
-17.4
-17.2
-17
-16.8
-16.6
-16.4
-16.2
-16
-15.8
-15.6
-15.4
-15.2
-15
-14.8
-14.6
-14.4
-14.2
-14
-13.8
-13.6
-13.4
-13.2
-13
-12.8
-12.6
-12.4
-12.2
-12
-11.8
-11.6
-11.4
-11.2
-11
-10.8
-10.6
-10.4
-10.2
-10
-9.8
-9.6
-9.4
-9.2
-9
-8.8
-8.6
-8.4
-8.2
-8
-7.8
-7.6
-7.4
-7.2
-7
-6.8
-6.6
-6.4
-6.2
-6
-5.8
-5.6
-5.4
-5.2
-5
-4.8
-4.6
-4.4
-4.2
-4
-3.8
-3.6
-3.4
-3.2
-3
-2.8
-2.6
-2.4
-2.2
-2
-1.8
-1.6
-1.4
-1.2
-1
</DataArray>
</CellData>
</Piece>
</RectilinearGrid>
</VTKFile>
