<?xml version="1.0"?>
<VTKFile type="RectilinearGrid">
<RectilinearGrid WholeExtent="0 100 0 0 0 0">
<Piece Extent="0 100 0 0 0 0">
<Coordinates>
<DataArray type="Float32" format="ascii">
0
10
20
30
40
50
60
70
80
90
100
110
120
130
140
150
160
170
180
190
200
210
220
230
240
250
260
270
280
290
300
310
320
330
340
350
360
370
380
390
400
410
420
430
440
450
460
470
480
490
500
510
520
530
540
550
560
570
580
590
600
610
620
630
640
650
660
670
680
690
700
710
720
730
740
750
760
770
780
790
800
810
820
830
840
850
860
870
880
890
900
910
920
930
940
950
960
970
980
990
1000
</DataArray>
<DataArray type="Float32" format="ascii">
0
</DataArray>
<DataArray type="Float32" format="ascii">
0
</DataArray>
</Coordinates>
<CellData>
<DataArray Name="h" type="Float32" format="ascii">
14
14
14
14
14
14
14
14
14
14
14
14
14
14
14
14
14
14
14
14
14
14
13.9996
13.9977
13.9885
13.9525
13.841
13.564
13.009
12.1035
10.8951
9.61631
8.66407
8.24365
7.89758
7.00619
5.66906
4.47873
3.82544
3.58345
3.51706
3.50282
3.50038
3.50004
3.5
3.5
3.5
3.5
3.5
3.5
3.5
3.5
3.5
3.5
3.5
3.5
3.5
3.5
3.5
3.5
3.5
3.5
3.5
3.5
3.5
3.5
3.5
3.5
3.5
3.5
3.5
3.5
3.5
3.5
3.5
3.5
3.5
3.5
3.5
3.5
3.5
3.5
3.5
3.5
3.5
3.5
3.5
3.5
3.5
3.5
3.5
3.5
3.5
3.50002
3.50017
3.50099
3.50452
3.51601
3.5424
3.58012
</DataArray>
<DataArray Name="hu" type="Float32" format="ascii">
-7.35139e-06
-2.61592e-05
-7.88463e-06
1.6363e-05
1.59829e-05
2.0187e-05
-1.51498e-05
-2.07477e-05
-5.304e-06
-3.55896e-06
1.17615e-05
-2.86554e-05
-2.37836e-05
2.24862e-05
2.44895e-05
1.08311e-05
-5.19813e-06
-6.39527e-06
-2.47787e-06
-1.8115e-07
6.25394e-05
0.000764776
0.00615251
0.0388383
0.197199
0.809051
2.69062
7.28687
16.2146
30.0719
47.2941
64.05
75.5962
78.2802
71.3182
54.8417
32.3336
14.1559
4.98764
1.77479
0.917284
0.735597
0.704708
0.700501
0.700041
0.699999
0.699997
0.7
0.700006
0.700004
0.699998
0.699998
0.7
0.700001
0.699999
0.699997
0.7
0.700003
0.699999
0.699999
0.700002
0.700002
0.699998
0.699997
0.7
0.700002
0.700002
0.699998
0.699999
0.699999
0.699998
0.700001
0.700002
0.700001
0.7
0.7
0.700001
0.700001
0.7
0.699999
0.699999
0.699999
0.7
0.700001
0.7
0.7
0.700001
0.7
0.7
0.7
0.7
0.699999
0.699979
0.699822
0.698759
0.693021
0.66876
0.591294
0.416054
0.165732
</DataArray>
<DataArray Name="B" type="Float32" format="ascii">
-20.8
-20.6
-20.4
-20.2
-20
-19.8
-19.6
-19.4
-19.2
-19
-18.8
-18.6
-18.4
-18.2
-18
-17.8
-17.6
-17.4
-17.2
-17
-16.8
-16.6
-16.4
-16.2
-16
-15.8
-15.6
-15.4
-15.2
-15
-14.8
-14.6
-14.4
-14.2
-14
-13.8
-13.6
-13.4
-13.2
-13
-12.8
-12.6
-12.4
-12.2
-12
-11.8
-11.6
-11.4
-11.2
-11
-10.8
-10.6
-10.4
-10.2
-10
-9.8
-9.6
-9.4
-9.2
-9
-8.8
-8.6
-8.4
-8.2
-8
-7.8
-7.6
-7.4
-7.2
-7
-6.8
-6.6
-6.4
-6.2
-6
-5.8
-5.6
-5.4
-5.2
-5
-4.8
-4.6
-4.4
-4.2
-4
-3.8
-3.6
-3.4
-3.2
-3
-2.8
-2.6
-2.4
-2.2
-2
-1.8
-1.6
-1.4
-1.2
-1
</DataArray>
</CellData>
</Piece>
</RectilinearGrid>
</VTKFile>
