<?xml version="1.0"?>
<VTKFile type="RectilinearGrid">
<RectilinearGrid WholeExtent="0 100 0 0 0 0">
<Piece Extent="0 100 0 0 0 0">
<Coordinates>
<DataArray type="Float32" format="ascii">
0
10
20
30
40
50
60
70
80
90
100
110
120
130
140
150
160
170
180
190
200
210
220
230
240
250
260
270
280
290
300
310
320
330
340
350
360
370
380
390
400
410
420
430
440
450
460
470
480
490
500
510
520
530
540
550
560
570
580
590
600
610
620
630
640
650
660
670
680
690
700
710
720
730
740
750
760
770
780
790
800
810
820
830
840
850
860
870
880
890
900
910
920
930
940
950
960
970
980
990
1000
</DataArray>
<DataArray type="Float32" format="ascii">
0
</DataArray>
<DataArray type="Float32" format="ascii">
0
</DataArray>
</Coordinates>
<CellData>
<DataArray Name="h" type="Float32" format="ascii">
9.07668
9.06809
9.05131
9.02687
8.99549
8.95832
8.91697
8.87343
8.82996
8.78888
8.75234
8.72198
8.69872
8.68261
8.67295
8.66843
8.66753
8.6688
8.67108
8.67359
8.67591
8.67789
8.67951
8.68084
8.68195
8.6829
8.68375
8.68451
8.68522
8.68588
8.6865
8.68708
8.68763
8.68815
8.68864
8.68911
8.68956
8.68999
8.6904
8.69079
8.69116
8.69151
8.69185
8.69216
8.69246
8.69273
8.69298
8.69321
8.69342
8.69359
8.69372
8.69381
8.69384
8.69377
8.69352
8.6929
8.69142
8.68802
8.68034
8.66331
8.62639
8.54844
8.38915
8.07918
7.52421
6.66488
5.61071
4.6631
4.04413
3.72856
3.59029
3.53447
3.51304
3.5053
3.50294
3.50285
3.50395
3.506
3.50902
3.51316
3.51854
3.5252
3.53301
3.5417
3.55083
3.55988
3.56828
3.57559
3.58149
3.58591
3.58895
3.59085
3.59191
3.59242
3.59262
3.59266
3.59264
3.5926
3.59256
3.59254
</DataArray>
<DataArray Name="hu" type="Float32" format="ascii">
4.43307
13.2487
21.9053
30.2911
38.2994
45.8273
52.7788
59.069
64.6299
69.4158
73.4092
76.6242
79.1077
80.9357
82.2059
83.0271
83.5072
83.7436
83.8164
83.7863
83.6954
83.5709
83.4292
83.2794
83.1262
82.9718
82.8174
82.6632
82.5093
82.3559
82.2028
82.05
81.8974
81.7451
81.5929
81.4408
81.2888
81.1368
80.9849
80.8329
80.681
80.529
80.3769
80.2247
80.0723
79.9198
79.7671
79.6141
79.4608
79.3071
79.153
78.9982
78.8426
78.6854
78.5252
78.358
78.1753
77.9568
77.6584
77.1854
76.3424
74.7411
71.6604
65.9281
56.1734
42.1326
26.5389
13.9963
6.59021
3.08644
1.62019
1.04225
0.821021
0.736563
0.70183
0.682812
0.665898
0.645062
0.617071
0.579915
0.532477
0.474704
0.407864
0.334653
0.259015
0.185608
0.119023
0.0629409
0.0194909
-0.0109848
-0.0297189
-0.0389797
-0.041404
-0.0394262
-0.0349345
-0.0291854
-0.0228954
-0.0164097
-0.0098677
-0.0032957
</DataArray>
<DataArray Name="B" type="Float32" format="ascii">
-20.8
-20.6
-20.4
-20.2
-20
-19.8
-19.6
-19.4
-19.2
-19
-18.8
-18.6
-18.4
-18.2
-18
-17.8
-17.6
-17.4
-17.2
-17
-16.8
-16.6
-16.4
-16.2
-16
-15.8
-15.6
-15.4
-15.2
-15
-14.8
-14.6
-14.4
-14.2
-14
-13.8
-13.6
-13.4
-13.2
-13
-12.8
-12.6
-12.4
-12.2
-12
-11.8
-11.6
-11.4
-11.2
-11
-10.8
-10.6
-10.4
-10.2
-10
-9.8
-9.6
-9.4
-9.2
-9
-8.8
-8.6
-8.4
-8.2
-8
-7.8
-7.6
-7.4
-7.2
-7
-6.8
-6.6
-6.4
-6.2
-6
-5.8
-5.6
-5.4
-5.2
-5
-4.8
-4.6
-4.4
-4.2
-4
-3.8
-3.6
-3.4
-3.2
-3
-2.8
-2.6
-2.4
-2.2
-2
-1.8
-1.6
-1.4
-1.2
-1
</DataArray>
</CellData>
</Piece>
</RectilinearGrid>
</VTKFile>
