<?xml version="1.0"?>
<VTKFile type="RectilinearGrid">
<RectilinearGrid WholeExtent="0 100 0 0 0 0">
<Piece Extent="0 100 0 0 0 0">
<Coordinates>
<DataArray type="Float32" format="ascii">
0
10
20
30
40
50
60
70
80
90
100
110
120
130
140
150
160
170
180
190
200
210
220
230
240
250
260
270
280
290
300
310
320
330
340
350
360
370
380
390
400
410
420
430
440
450
460
470
480
490
500
510
520
530
540
550
560
570
580
590
600
610
620
630
640
650
660
670
680
690
700
710
720
730
740
750
760
770
780
790
800
810
820
830
840
850
860
870
880
890
900
910
920
930
940
950
960
970
980
990
1000
</DataArray>
<DataArray type="Float32" format="ascii">
0
</DataArray>
<DataArray type="Float32" format="ascii">
0
</DataArray>
</Coordinates>
<CellData>
<DataArray Name="h" type="Float32" format="ascii">
4.06486
4.06533
4.06629
4.06777
4.06977
4.0723
4.07536
4.07895
4.08309
4.08778
4.09302
4.09881
4.10517
4.11208
4.11956
4.1276
4.13621
4.14538
4.15512
4.16542
4.17628
4.1877
4.19967
4.2122
4.22527
4.23888
4.25302
4.26768
4.28287
4.29856
4.31474
4.33142
4.34858
4.3662
4.38428
4.4028
4.42176
4.44114
4.46093
4.48113
4.50172
4.5227
4.54408
4.5659
4.58827
4.61142
4.6359
4.66291
4.69516
4.73859
4.80605
4.9243
5.14455
5.5478
6.21395
7.12663
8.10491
8.91854
9.46671
9.78751
9.96194
10.0549
10.1057
10.1352
10.1544
10.1685
10.1801
10.1906
10.2006
10.2104
10.2203
10.2301
10.2401
10.2502
10.2603
10.2705
10.2808
10.2912
10.3015
10.3119
10.3222
10.3325
10.3427
10.3527
10.3627
10.3724
10.3818
10.391
10.3999
10.4084
10.4165
10.424
10.431
10.4374
10.4431
10.4479
10.452
10.455
10.457
10.4579
</DataArray>
<DataArray Name="hu" type="Float32" format="ascii">
0.165353
0.496205
0.827208
1.15816
1.48897
1.81966
2.15021
2.48059
2.81076
3.14071
3.47043
3.7999
4.12915
4.45814
4.78692
5.11551
5.44392
5.7722
6.1004
6.42859
6.75682
7.08519
7.41377
7.74267
8.07201
8.40191
8.73248
9.06384
9.39616
9.72958
10.0643
10.4004
10.738
11.0774
11.4188
11.7621
12.1077
12.4557
12.8062
13.1593
13.5152
13.8738
14.235
14.5984
14.9627
15.3252
15.6797
16.0124
16.2928
16.4546
16.3542
15.6901
13.8671
9.86964
2.48266
-8.57505
-21.2951
-32.3266
-39.7062
-43.6315
-45.2179
-45.4676
-45.0141
-44.2033
-43.2126
-42.1305
-41.0006
-39.8448
-38.6738
-37.493
-36.3053
-35.1122
-33.9145
-32.7126
-31.5069
-30.2977
-29.0851
-27.8694
-26.6506
-25.429
-24.2047
-22.9778
-21.7485
-20.5169
-19.2832
-18.0475
-16.8101
-15.571
-14.3304
-13.0884
-11.8453
-10.601
-9.3559
-8.10998
-6.86345
-5.61645
-4.36912
-3.1216
-1.87403
-0.625126
</DataArray>
<DataArray Name="B" type="Float32" format="ascii">
-20.8
-20.6
-20.4
-20.2
-20
-19.8
-19.6
-19.4
-19.2
-19
-18.8
-18.6
-18.4
-18.2
-18
-17.8
-17.6
-17.4
-17.2
-17
-16.8
-16.6
-16.4
-16.2
-16
-15.8
-15.6
-15.4
-15.2
-15
-14.8
-14.6
-14.4
-14.2
-14
-13.8
-13.6
-13.4
-13.2
-13
-12.8
-12.6
-12.4
-12.2
-12
-11.8
-11.6
-11.4
-11.2
-11
-10.8
-10.6
-10.4
-10.2
-10
-9.8
-9.6
-9.4
-9.2
-9
-8.8
-8.6
-8.4
-8.2
-8
-7.8
-7.6
-7.4
-7.2
-7
-6.8
-6.6
-6.4
-6.2
-6
-5.8
-5.6
-5.4
-5.2
-5
-4.8
-4.6
-4.4
-4.2
-4
-3.8
-3.6
-3.4
-3.2
-3
-2.8
-2.6
-2.4
-2.2
-2
-1.8
-1.6
-1.4
-1.2
-1
</DataArray>
</CellData>
</Piece>
</RectilinearGrid>
</VTKFile>
