<?xml version="1.0"?>
<VTKFile type="RectilinearGrid">
<RectilinearGrid WholeExtent="0 100 0 0 0 0">
<Piece Extent="0 100 0 0 0 0">
<Coordinates>
<DataArray type="Float32" format="ascii">
0
10
20
30
40
50
60
70
80
90
100
110
120
130
140
150
160
170
180
190
200
210
220
230
240
250
260
270
280
290
300
310
320
330
340
350
360
370
380
390
400
410
420
430
440
450
460
470
480
490
500
510
520
530
540
550
560
570
580
590
600
610
620
630
640
650
660
670
680
690
700
710
720
730
740
750
760
770
780
790
800
810
820
830
840
850
860
870
880
890
900
910
920
930
940
950
960
970
980
990
1000
</DataArray>
<DataArray type="Float32" format="ascii">
0
</DataArray>
<DataArray type="Float32" format="ascii">
0
</DataArray>
</Coordinates>
<CellData>
<DataArray Name="h" type="Float32" format="ascii">
5.50646
5.53379
5.58851
5.67006
5.77709
5.90764
6.05907
6.22819
6.41126
6.60427
6.80312
7.00378
7.20255
7.39606
7.58142
7.75616
7.91823
8.06604
8.19841
8.31462
8.41446
8.49821
8.56667
8.6211
8.66309
8.69451
8.71727
8.73324
8.74411
8.75129
8.75593
8.7589
8.76079
8.76204
8.7629
8.76354
8.76406
8.76451
8.76492
8.76531
8.76568
8.76604
8.76638
8.76671
8.76702
8.76733
8.76762
8.76789
8.76815
8.76838
8.7686
8.7688
8.76897
8.76913
8.76925
8.76934
8.7694
8.76942
8.76939
8.76929
8.76909
8.76872
8.76801
8.7666
8.76367
8.75748
8.74428
8.71621
8.65706
8.53455
8.28836
7.82213
7.03596
5.96016
4.88855
4.15
3.77774
3.62529
3.57153
3.55673
3.5564
3.56108
3.56706
3.57286
3.57787
3.58188
3.58487
3.58694
3.58827
3.58906
3.58946
3.58963
3.58966
3.58963
3.58958
3.58952
3.58946
3.58942
3.58938
3.58936
</DataArray>
<DataArray Name="hu" type="Float32" format="ascii">
2.53369
7.58674
12.592
17.5159
22.3327
27.0237
31.5772
35.9883
40.2567
44.3845
48.3725
52.2179
55.9123
59.4413
62.7844
65.9174
68.814
71.449
73.8007
75.8537
77.6009
79.0449
80.1986
81.0844
81.732
82.1766
82.4551
82.6033
82.6538
82.6342
82.5663
82.4667
82.3472
82.2157
82.0772
81.935
81.7908
81.6456
81.5
81.3541
81.2083
81.0624
80.9165
80.7707
80.6249
80.4791
80.3334
80.1876
80.042
79.8963
79.7507
79.605
79.4594
79.3137
79.1679
79.0221
78.8761
78.73
78.5835
78.4365
78.2884
78.1378
77.9815
77.8125
77.6153
77.3564
76.9645
76.2912
75.034
72.6013
67.9357
59.5221
46.3094
30.0357
15.7609
7.03083
2.97404
1.33222
0.682315
0.404352
0.262515
0.172417
0.105489
0.052852
0.011964
-0.018185
-0.0386554
-0.0509039
-0.0566626
-0.0576793
-0.0555016
-0.0513532
-0.0460946
-0.0402702
-0.0341888
-0.0280077
-0.0217961
-0.015577
-0.00935966
-0.0031263
</DataArray>
<DataArray Name="B" type="Float32" format="ascii">
-20.8
-20.6
-20.4
-20.2
-20
-19.8
-19.6
-19.4
-19.2
-19
-18.8
-18.6
-18.4
-18.2
-18
-17.8
-17.6
-17.4
-17.2
-17
-16.8
-16.6
-16.4
-16.2
-16
-15.8
-15.6
-15.4
-15.2
-15
-14.8
-14.6
-14.4
-14.2
-14
-13.8
-13.6
-13.4
-13.2
-13
-12.8
-12.6
-12.4
-12.2
-12
-11.8
-11.6
-11.4
-11.2
-11
-10.8
-10.6
-10.4
-10.2
-10
-9.8
-9.6
-9.4
-9.2
-9
-8.8
-8.6
-8.4
-8.2
-8
-7.8
-7.6
-7.4
-7.2
-7
-6.8
-6.6
-6.4
-6.2
-6
-5.8
-5.6
-5.4
-5.2
-5
-4.8
-4.6
-4.4
-4.2
-4
-3.8
-3.6
-3.4
-3.2
-3
-2.8
-2.6
-2.4
-2.2
-2
-1.8
-1.6
-1.4
-1.2
-1
</DataArray>
</CellData>
</Piece>
</RectilinearGrid>
</VTKFile>
