<?xml version="1.0"?>
<VTKFile type="RectilinearGrid">
<RectilinearGrid WholeExtent="0 100 0 0 0 0">
<Piece Extent="0 100 0 0 0 0">
<Coordinates>
<DataArray type="Float32" format="ascii">
0
10
20
30
40
50
60
70
80
90
100
110
120
130
140
150
160
170
180
190
200
210
220
230
240
250
260
270
280
290
300
310
320
330
340
350
360
370
380
390
400
410
420
430
440
450
460
470
480
490
500
510
520
530
540
550
560
570
580
590
600
610
620
630
640
650
660
670
680
690
700
710
720
730
740
750
760
770
780
790
800
810
820
830
840
850
860
870
880
890
900
910
920
930
940
950
960
970
980
990
1000
</DataArray>
<DataArray type="Float32" format="ascii">
0
</DataArray>
<DataArray type="Float32" format="ascii">
0
</DataArray>
</Coordinates>
<CellData>
<DataArray Name="h" type="Float32" format="ascii">
6.90785
6.9081
6.90865
6.90953
6.91074
6.91228
6.91415
6.91635
6.91888
6.92175
6.92495
6.92849
6.93236
6.93657
6.9411
6.94598
6.95119
6.95673
6.96261
6.96883
6.97537
6.98226
6.98947
6.99701
7.00489
7.0131
7.02164
7.0305
7.03969
7.0492
7.05904
7.0692
7.07968
7.09049
7.10161
7.11306
7.12482
7.1369
7.1493
7.16201
7.17504
7.18839
7.20205
7.21604
7.23035
7.24498
7.25994
7.27523
7.29086
7.30683
7.32315
7.33982
7.35686
7.37428
7.39209
7.4103
7.42892
7.44796
7.46745
7.4874
7.50782
7.52873
7.55015
7.57208
7.59455
7.61754
7.64108
7.66516
7.68976
7.71489
7.74052
7.76661
7.79312
7.82
7.84717
7.87453
7.90197
7.92936
7.9565
7.98315
8.00895
8.03329
8.05512
8.07246
8.08134
8.07356
8.03168
7.91852
7.65787
7.11319
6.13136
4.81932
3.76983
3.29146
3.14046
3.0982
3.08567
3.08117
3.07918
3.07832
</DataArray>
<DataArray Name="hu" type="Float32" format="ascii">
0.463858
1.39199
2.32052
3.24901
4.17743
5.10578
6.03402
6.96211
7.89004
8.81776
9.74526
10.6725
11.5994
12.526
13.4522
14.378
15.3033
16.2281
17.1523
18.0759
18.9988
19.9209
20.8422
21.7626
22.682
23.6003
24.5175
25.4334
26.348
27.2612
28.1727
29.0826
29.9907
30.8968
31.8008
32.7027
33.6021
34.499
35.3932
36.2844
37.1726
38.0574
38.9387
39.8162
40.6897
41.5588
42.4234
43.2831
44.1376
44.9866
45.8298
46.6667
47.4971
48.3205
49.1366
49.9448
50.7449
51.5364
52.3187
53.0915
53.8543
54.6066
55.348
56.0781
56.7964
57.5026
58.1964
58.8772
59.5451
60.1995
60.8405
61.4678
62.0814
62.6813
63.2675
63.8401
64.3989
64.9437
65.4736
65.9865
66.4786
66.9415
67.3582
67.6937
67.8742
67.743
66.9639
64.8278
59.9492
50.1979
34.4341
17.0092
5.8179
1.61631
0.452571
0.149943
0.0646606
0.0341589
0.0179803
0.00571339
</DataArray>
<DataArray Name="B" type="Float32" format="ascii">
-20.8
-20.6
-20.4
-20.2
-20
-19.8
-19.6
-19.4
-19.2
-19
-18.8
-18.6
-18.4
-18.2
-18
-17.8
-17.6
-17.4
-17.2
-17
-16.8
-16.6
-16.4
-16.2
-16
-15.8
-15.6
-15.4
-15.2
-15
-14.8
-14.6
-14.4
-14.2
-14
-13.8
-13.6
-13.4
-13.2
-13
-12.8
-12.6
-12.4
-12.2
-12
-11.8
-11.6
-11.4
-11.2
-11
-10.8
-10.6
-10.4
-10.2
-10
-9.8
-9.6
-9.4
-9.2
-9
-8.8
-8.6
-8.4
-8.2
-8
-7.8
-7.6
-7.4
-7.2
-7
-6.8
-6.6
-6.4
-6.2
-6
-5.8
-5.6
-5.4
-5.2
-5
-4.8
-4.6
-4.4
-4.2
-4
-3.8
-3.6
-3.4
-3.2
-3
-2.8
-2.6
-2.4
-2.2
-2
-1.8
-1.6
-1.4
-1.2
-1
</DataArray>
</CellData>
</Piece>
</RectilinearGrid>
</VTKFile>
