<?xml version="1.0"?>
<VTKFile type="RectilinearGrid">
<RectilinearGrid WholeExtent="0 100 0 0 0 0">
<Piece Extent="0 100 0 0 0 0">
<Coordinates>
<DataArray type="Float32" format="ascii">
0
10
20
30
40
50
60
70
80
90
100
110
120
130
140
150
160
170
180
190
200
210
220
230
240
250
260
270
280
290
300
310
320
330
340
350
360
370
380
390
400
410
420
430
440
450
460
470
480
490
500
510
520
530
540
550
560
570
580
590
600
610
620
630
640
650
660
670
680
690
700
710
720
730
740
750
760
770
780
790
800
810
820
830
840
850
860
870
880
890
900
910
920
930
940
950
960
970
980
990
1000
</DataArray>
<DataArray type="Float32" format="ascii">
0
</DataArray>
<DataArray type="Float32" format="ascii">
0
</DataArray>
</Coordinates>
<CellData>
<DataArray Name="h" type="Float32" format="ascii">
6.41582
6.41608
6.41665
6.41757
6.41882
6.42041
6.42235
6.42463
6.42726
6.43024
6.43357
6.43724
6.44128
6.44567
6.45041
6.45552
6.46098
6.46681
6.473
6.47956
6.48648
6.49377
6.50144
6.50947
6.51788
6.52666
6.53581
6.54535
6.55528
6.56558
6.57627
6.58735
6.59882
6.61068
6.62295
6.63561
6.64868
6.66216
6.67606
6.69038
6.70512
6.72031
6.73593
6.75201
6.76854
6.78554
6.80302
6.821
6.83947
6.85846
6.87798
6.89804
6.91865
6.93983
6.9616
6.98397
7.00695
7.03055
7.05479
7.07968
7.10522
7.13142
7.15827
7.18578
7.21394
7.24272
7.27211
7.30208
7.33259
7.36359
7.39502
7.42683
7.45893
7.49124
7.52367
7.55612
7.5885
7.62069
7.65259
7.68409
7.71506
7.7454
7.77497
7.80366
7.83131
7.85777
7.88285
7.90634
7.92789
7.94697
7.96257
7.97274
7.97358
7.95681
7.90457
7.77814
7.49633
6.91094
5.87451
4.73012
</DataArray>
<DataArray Name="hu" type="Float32" format="ascii">
0.423144
1.26982
2.11689
2.96391
3.81087
4.65778
5.5046
6.35131
7.19789
8.04432
8.89055
9.73657
10.5824
11.4279
12.2731
13.1179
13.9624
14.8064
15.6499
16.4928
17.3352
18.177
19.018
19.8582
20.6976
21.536
22.3734
23.2098
24.0449
24.8787
25.7112
26.5421
27.3714
28.199
29.0246
29.8482
30.6697
31.4888
32.3053
33.1192
33.9302
34.7381
35.5427
36.3438
37.1412
37.9346
38.7238
39.5084
40.2884
41.0633
41.8329
42.5969
43.355
44.1069
44.8523
45.5909
46.3225
47.0467
47.7633
48.4721
49.1728
49.8653
50.5493
51.2248
51.8917
52.5499
53.1994
53.8404
54.4728
55.097
55.713
56.3213
56.9221
57.5157
58.1025
58.6828
59.2571
59.8255
60.3886
60.9464
61.4992
62.0471
62.5902
63.1285
63.6618
64.1893
64.71
65.2214
65.7188
66.1933
66.6268
66.9817
67.178
67.0422
66.1925
63.802
58.2073
46.804
28.4108
8.55521
</DataArray>
<DataArray Name="B" type="Float32" format="ascii">
-20.8
-20.6
-20.4
-20.2
-20
-19.8
-19.6
-19.4
-19.2
-19
-18.8
-18.6
-18.4
-18.2
-18
-17.8
-17.6
-17.4
-17.2
-17
-16.8
-16.6
-16.4
-16.2
-16
-15.8
-15.6
-15.4
-15.2
-15
-14.8
-14.6
-14.4
-14.2
-14
-13.8
-13.6
-13.4
-13.2
-13
-12.8
-12.6
-12.4
-12.2
-12
-11.8
-11.6
-11.4
-11.2
-11
-10.8
-10.6
-10.4
-10.2
-10
-9.8
-9.6
-9.4
-9.2
-9
-8.8
-8.6
-8.4
-8.2
-8
-7.8
-7.6
-7.4
-7.2
-7
-6.8
-6.6
-6.4
-6.2
-6
-5.8
-5.6
-5.4
-5.2
-5
-4.8
-4.6
-4.4
-4.2
-4
-3.8
-3.6
-3.4
-3.2
-3
-2.8
-2.6
-2.4
-2.2
-2
-1.8
-1.6
-1.4
-1.2
-1
</DataArray>
</CellData>
</Piece>
</RectilinearGrid>
</VTKFile>
