<?xml version="1.0"?>
<VTKFile type="RectilinearGrid">
<RectilinearGrid WholeExtent="0 100 0 0 0 0">
<Piece Extent="0 100 0 0 0 0">
<Coordinates>
<DataArray type="Float32" format="ascii">
0
10
20
30
40
50
60
70
80
90
100
110
120
130
140
150
160
170
180
190
200
210
220
230
240
250
260
270
280
290
300
310
320
330
340
350
360
370
380
390
400
410
420
430
440
450
460
470
480
490
500
510
520
530
540
550
560
570
580
590
600
610
620
630
640
650
660
670
680
690
700
710
720
730
740
750
760
770
780
790
800
810
820
830
840
850
860
870
880
890
900
910
920
930
940
950
960
970
980
990
1000
</DataArray>
<DataArray type="Float32" format="ascii">
0
</DataArray>
<DataArray type="Float32" format="ascii">
0
</DataArray>
</Coordinates>
<CellData>
<DataArray Name="h" type="Float32" format="ascii">
3.80251
3.80268
3.80304
3.80358
3.80429
3.80516
3.8062
3.80739
3.8087
3.81015
3.81169
3.81331
3.815
3.81673
3.81847
3.82021
3.82191
3.82356
3.82512
3.82658
3.82791
3.82909
3.8301
3.83093
3.83155
3.83197
3.83216
3.83212
3.83184
3.83133
3.83058
3.82959
3.82836
3.8269
3.82522
3.82331
3.8212
3.81888
3.81639
3.81376
3.81107
3.80849
3.80639
3.80559
3.80789
3.81729
3.84262
3.90299
4.03758
4.31773
4.84208
5.67063
6.70625
7.69618
8.43217
8.88333
9.12786
9.25212
9.31432
9.34709
9.36747
9.3843
9.40233
9.42428
9.45181
9.48599
9.52745
9.57651
9.6332
9.69733
9.76846
9.84601
9.92928
10.0175
10.1097
10.2052
10.3031
10.4026
10.5029
10.6033
10.7031
10.8018
10.8987
10.9934
11.0855
11.1744
11.2598
11.3414
11.4187
11.4914
11.5593
11.6219
11.679
11.7303
11.7753
11.8138
11.8453
11.8694
11.8857
11.8938
</DataArray>
<DataArray Name="hu" type="Float32" format="ascii">
0.00103333
0.00304856
0.00488889
0.00643102
0.00758843
0.00828718
0.00846709
0.00810606
0.00718282
0.00573147
0.00383108
0.00159603
-0.000829258
-0.00329325
-0.0055955
-0.00749937
-0.00876834
-0.00919848
-0.00853904
-0.00653676
-0.0029535
0.00244474
0.00983511
0.0193831
0.0312414
0.04553
0.0623301
0.0816967
0.103625
0.128077
0.155048
0.184485
0.216272
0.250311
0.286478
0.324631
0.364598
0.40616
0.449003
0.492568
0.535794
0.576501
0.610069
0.626449
0.60357
0.492688
0.186458
-0.548268
-2.19962
-5.7031
-12.515
-23.9382
-39.2973
-55.0829
-67.5336
-75.4354
-79.7104
-81.7426
-82.5492
-82.7145
-82.5374
-82.1608
-81.6492
-81.0287
-80.3074
-79.4855
-78.5602
-77.5281
-76.3866
-75.1341
-73.7703
-72.2963
-70.7138
-69.0258
-67.2354
-65.3465
-63.3631
-61.2894
-59.1298
-56.8886
-54.5703
-52.1793
-49.7202
-47.1972
-44.6148
-41.9773
-39.289
-36.554
-33.7766
-30.9606
-28.1102
-25.2291
-22.3211
-19.3898
-16.4388
-13.4715
-10.4914
-7.50171
-4.50557
-1.50315
</DataArray>
<DataArray Name="B" type="Float32" format="ascii">
-20.8
-20.6
-20.4
-20.2
-20
-19.8
-19.6
-19.4
-19.2
-19
-18.8
-18.6
-18.4
-18.2
-18
-17.8
-17.6
-17.4
-17.2
-17
-16.8
-16.6
-16.4
-16.2
-16
-15.8
-15.6
-15.4
-15.2
-15
-14.8
-14.6
-14.4
-14.2
-14
-13.8
-13.6
-13.4
-13.2
-13
-12.8
-12.6
-12.4
-12.2
-12
-11.8
-11.6
-11.4
-11.2
-11
-10.8
-10.6
-10.4
-10.2
-10
-9.8
-9.6
-9.4
-9.2
-9
-8.8
-8.6
-8.4
-8.2
-8
-7.8
-7.6
-7.4
-7.2
-7
-6.8
-6.6
-6.4
-6.2
-6
-5.8
-5.6
-5.4
-5.2
-5
-4.8
-4.6
-4.4
-4.2
-4
-3.8
-3.6
-3.4
-3.2
-3
-2.8
-2.6
-2.4
-2.2
-2
-1.8
-1.6
-1.4
-1.2
-1
</DataArray>
</CellData>
</Piece>
</RectilinearGrid>
</VTKFile>
