<?xml version="1.0"?>
<VTKFile type="RectilinearGrid">
<RectilinearGrid WholeExtent="0 100 0 0 0 0">
<Piece Extent="0 100 0 0 0 0">
<Coordinates>
<DataArray type="Float32" format="ascii">
0
10
20
30
40
50
60
70
80
90
100
110
120
130
140
150
160
170
180
190
200
210
220
230
240
250
260
270
280
290
300
310
320
330
340
350
360
370
380
390
400
410
420
430
440
450
460
470
480
490
500
510
520
530
540
550
560
570
580
590
600
610
620
630
640
650
660
670
680
690
700
710
720
730
740
750
760
770
780
790
800
810
820
830
840
850
860
870
880
890
900
910
920
930
940
950
960
970
980
990
1000
</DataArray>
<DataArray type="Float32" format="ascii">
0
</DataArray>
<DataArray type="Float32" format="ascii">
0
</DataArray>
</Coordinates>
<CellData>
<DataArray Name="h" type="Float32" format="ascii">
5.18067
5.18098
5.18164
5.18268
5.1841
5.1859
5.1881
5.19068
5.19367
5.19706
5.20085
5.20507
5.2097
5.21477
5.22026
5.2262
5.23259
5.23943
5.24674
5.25452
5.26278
5.27152
5.28077
5.29052
5.30079
5.31158
5.32291
5.33479
5.34723
5.36023
5.37381
5.38799
5.40277
5.41816
5.43418
5.45083
5.46813
5.48609
5.50472
5.52402
5.54401
5.5647
5.58608
5.60816
5.63096
5.65446
5.67867
5.70359
5.72921
5.75552
5.78252
5.81019
5.83851
5.86747
5.89705
5.92721
5.95792
5.98917
6.02091
6.05311
6.08573
6.11873
6.15206
6.18568
6.21955
6.25362
6.28784
6.32216
6.35654
6.39092
6.42526
6.45951
6.49361
6.52754
6.56128
6.5949
6.62871
6.66374
6.70319
6.75669
6.85239
7.0672
7.57426
8.601
10.1034
11.5787
12.5942
13.1442
13.4083
13.5313
13.591
13.623
13.6427
13.6566
13.6673
13.6758
13.6824
13.6874
13.6906
13.6922
</DataArray>
<DataArray Name="hu" type="Float32" format="ascii">
0.312138
0.936686
1.56148
2.18621
2.81083
3.43531
4.0596
4.68363
5.30737
5.93082
6.55388
7.17649
7.79862
8.42022
9.04123
9.66157
10.2812
10.9
11.5179
12.1349
12.7508
13.3657
13.9793
14.5917
15.2027
15.8122
16.4201
17.0263
17.6308
18.2334
18.8341
19.4326
20.029
20.6231
21.2147
21.8039
22.3905
22.9745
23.5556
24.134
24.7095
25.282
25.8516
26.4182
26.9818
27.5425
28.1002
28.6549
29.2069
29.7562
30.3028
30.847
31.3889
31.9287
32.4667
33.0029
33.5379
34.0716
34.6045
35.1369
35.6689
36.2009
36.7332
37.2659
37.7995
38.3341
38.8699
39.4072
39.9461
40.4869
41.0296
41.5744
42.1213
42.6702
43.221
43.7727
44.3227
44.8629
45.3703
45.7767
45.8842
45.1302
42.0698
34.1092
20.137
4.56652
-6.72073
-12.439
-14.397
-14.4311
-13.5964
-12.3896
-11.0266
-9.59773
-8.14024
-6.6696
-5.19236
-3.71149
-2.22858
-0.743386
</DataArray>
<DataArray Name="B" type="Float32" format="ascii">
-20.8
-20.6
-20.4
-20.2
-20
-19.8
-19.6
-19.4
-19.2
-19
-18.8
-18.6
-18.4
-18.2
-18
-17.8
-17.6
-17.4
-17.2
-17
-16.8
-16.6
-16.4
-16.2
-16
-15.8
-15.6
-15.4
-15.2
-15
-14.8
-14.6
-14.4
-14.2
-14
-13.8
-13.6
-13.4
-13.2
-13
-12.8
-12.6
-12.4
-12.2
-12
-11.8
-11.6
-11.4
-11.2
-11
-10.8
-10.6
-10.4
-10.2
-10
-9.8
-9.6
-9.4
-9.2
-9
-8.8
-8.6
-8.4
-8.2
-8
-7.8
-7.6
-7.4
-7.2
-7
-6.8
-6.6
-6.4
-6.2
-6
-5.8
-5.6
-5.4
-5.2
-5
-4.8
-4.6
-4.4
-4.2
-4
-3.8
-3.6
-3.4
-3.2
-3
-2.8
-2.6
-2.4
-2.2
-2
-1.8
-1.6
-1.4
-1.2
-1
</DataArray>
</CellData>
</Piece>
</RectilinearGrid>
</VTKFile>
