<?xml version="1.0"?>
<VTKFile type="RectilinearGrid">
<RectilinearGrid WholeExtent="0 100 0 0 0 0">
<Piece Extent="0 100 0 0 0 0">
<Coordinates>
<DataArray type="Float32" format="ascii">
0
10
20
30
40
50
60
70
80
90
100
110
120
130
140
150
160
170
180
190
200
210
220
230
240
250
260
270
280
290
300
310
320
330
340
350
360
370
380
390
400
410
420
430
440
450
460
470
480
490
500
510
520
530
540
550
560
570
580
590
600
610
620
630
640
650
660
670
680
690
700
710
720
730
740
750
760
770
780
790
800
810
820
830
840
850
860
870
880
890
900
910
920
930
940
950
960
970
980
990
1000
</DataArray>
<DataArray type="Float32" format="ascii">
0
</DataArray>
<DataArray type="Float32" format="ascii">
0
</DataArray>
</Coordinates>
<CellData>
<DataArray Name="h" type="Float32" format="ascii">
3.82868
3.82865
3.82858
3.82849
3.82837
3.82821
3.82803
3.82782
3.8276
3.82735
3.8271
3.82683
3.82657
3.82631
3.82607
3.82585
3.82567
3.82553
3.82545
3.82545
3.82552
3.82568
3.82594
3.82632
3.82681
3.82742
3.82815
3.82901
3.82997
3.83105
3.83221
3.83345
3.83475
3.83609
3.83746
3.83885
3.84026
3.84174
3.84335
3.84518
3.8474
3.85023
3.85399
3.85908
3.86598
3.87526
3.88759
3.90364
3.92413
3.94975
3.98111
4.01875
4.06306
4.11427
4.17249
4.23764
4.30953
4.38785
4.47219
4.56207
4.657
4.75644
4.85995
4.96718
5.0781
5.1935
5.3161
5.45349
5.62519
5.87835
6.31355
7.09007
8.31039
9.7985
11.1563
12.1373
12.7654
13.1668
13.4456
13.6629
13.85
14.0217
14.185
14.3428
14.4963
14.6455
14.7904
14.9305
15.0652
15.1937
15.3153
15.4291
15.5342
15.6295
15.7139
15.7865
15.8462
15.892
15.9231
15.9389
</DataArray>
<DataArray Name="hu" type="Float32" format="ascii">
0.0105531
0.0316736
0.0527794
0.0738214
0.0947739
0.115577
0.13621
0.156628
0.176779
0.196603
0.215993
0.234876
0.25314
0.270685
0.287406
0.30313
0.317705
0.330975
0.34278
0.352965
0.361373
0.367845
0.372236
0.374436
0.374353
0.371942
0.367175
0.360076
0.350759
0.339374
0.326119
0.311303
0.295323
0.278645
0.261864
0.245779
0.231397
0.220013
0.213322
0.213501
0.223356
0.246445
0.287188
0.350938
0.443963
0.573388
0.746992
0.97293
1.25936
1.61404
2.04384
2.55445
3.15007
3.83325
4.60483
5.46409
6.40887
7.43585
8.54076
9.71867
10.9642
12.2714
13.6341
15.0448
16.4933
17.9625
19.4175
20.779
21.8576
22.201
20.7909
15.7533
5.17443
-9.94966
-24.7289
-34.9311
-40.0623
-41.6832
-41.3535
-40.0505
-38.2894
-36.3224
-34.2693
-32.1867
-30.1013
-28.0261
-25.9675
-23.9289
-21.9121
-19.9174
-17.9449
-15.9936
-14.0622
-12.149
-10.2519
-8.36861
-6.49684
-4.63425
-2.7785
-0.926028
</DataArray>
<DataArray Name="B" type="Float32" format="ascii">
-20.8
-20.6
-20.4
-20.2
-20
-19.8
-19.6
-19.4
-19.2
-19
-18.8
-18.6
-18.4
-18.2
-18
-17.8
-17.6
-17.4
-17.2
-17
-16.8
-16.6
-16.4
-16.2
-16
-15.8
-15.6
-15.4
-15.2
-15
-14.8
-14.6
-14.4
-14.2
-14
-13.8
-13.6
-13.4
-13.2
-13
-12.8
-12.6
-12.4
-12.2
-12
-11.8
-11.6
-11.4
-11.2
-11
-10.8
-10.6
-10.4
-10.2
-10
-9.8
-9.6
-9.4
-9.2
-9
-8.8
-8.6
-8.4
-8.2
-8
-7.8
-7.6
-7.4
-7.2
-7
-6.8
-6.6
-6.4
-6.2
-6
-5.8
-5.6
-5.4
-5.2
-5
-4.8
-4.6
-4.4
-4.2
-4
-3.8
-3.6
-3.4
-3.2
-3
-2.8
-2.6
-2.4
-2.2
-2
-1.8
-1.6
-1.4
-1.2
-1
</DataArray>
</CellData>
</Piece>
</RectilinearGrid>
</VTKFile>
