<?xml version="1.0"?>
<VTKFile type="RectilinearGrid">
<RectilinearGrid WholeExtent="0 100 0 0 0 0">
<Piece Extent="0 100 0 0 0 0">
<Coordinates>
<DataArray type="Float32" format="ascii">
0
10
20
30
40
50
60
70
80
90
100
110
120
130
140
150
160
170
180
190
200
210
220
230
240
250
260
270
280
290
300
310
320
330
340
350
360
370
380
390
400
410
420
430
440
450
460
470
480
490
500
510
520
530
540
550
560
570
580
590
600
610
620
630
640
650
660
670
680
690
700
710
720
730
740
750
760
770
780
790
800
810
820
830
840
850
860
870
880
890
900
910
920
930
940
950
960
970
980
990
1000
</DataArray>
<DataArray type="Float32" format="ascii">
0
</DataArray>
<DataArray type="Float32" format="ascii">
0
</DataArray>
</Coordinates>
<CellData>
<DataArray Name="h" type="Float32" format="ascii">
5.35248
5.35278
5.35343
5.35444
5.35582
5.35757
5.35971
5.36222
5.36513
5.36842
5.37212
5.37621
5.38071
5.38563
5.39096
5.39672
5.4029
5.40953
5.4166
5.42412
5.4321
5.44054
5.44946
5.45886
5.46875
5.47914
5.49005
5.50147
5.51342
5.52591
5.53895
5.55255
5.56672
5.58148
5.59683
5.6128
5.62938
5.64658
5.66444
5.68295
5.70212
5.72197
5.7425
5.76373
5.78566
5.8083
5.83165
5.85571
5.8805
5.906
5.93221
5.95913
5.98675
6.01506
6.04403
6.07365
6.1039
6.13475
6.16617
6.19812
6.23057
6.26348
6.29679
6.33048
6.36449
6.39877
6.43326
6.46792
6.50269
6.53751
6.57233
6.60709
6.64173
6.6762
6.71043
6.74438
6.77799
6.81123
6.84414
6.877
6.91076
6.94864
7.00084
7.09892
7.33299
7.90939
9.07847
10.716
12.214
13.1727
13.6615
13.8854
13.9858
14.0328
14.0572
14.0716
14.081
14.0873
14.0912
14.0931
</DataArray>
<DataArray Name="hu" type="Float32" format="ascii">
0.328871
0.986902
1.64521
2.30345
2.96161
3.61964
4.2775
4.93518
5.59262
6.24979
6.90665
7.56315
8.21925
8.87489
9.53003
10.1846
10.8385
11.4918
12.1443
12.796
13.4467
14.0965
14.7452
15.3928
16.0392
16.6842
17.3277
17.9698
18.6102
19.2489
19.8857
20.5205
21.1532
21.7837
22.4119
23.0376
23.6608
24.2812
24.8989
25.5136
26.1253
26.7338
27.3392
27.9412
28.5399
29.1351
29.7269
30.3152
30.9001
31.4814
32.0594
32.6341
33.2055
33.7737
34.339
34.9016
35.4615
36.0191
36.5746
37.1282
37.6802
38.231
38.7808
39.3299
39.8787
40.4273
40.9761
41.5254
42.0754
42.6262
43.1782
43.7316
44.2864
44.8427
45.4008
45.9606
46.5221
47.0851
47.6488
48.211
48.7647
49.2881
49.7144
49.838
49.0417
45.6624
36.7551
21.6464
5.9675
-4.47023
-9.27456
-10.6332
-10.3412
-9.34055
-8.04995
-6.64272
-5.18829
-3.71426
-2.23181
-0.744667
</DataArray>
<DataArray Name="B" type="Float32" format="ascii">
-20.8
-20.6
-20.4
-20.2
-20
-19.8
-19.6
-19.4
-19.2
-19
-18.8
-18.6
-18.4
-18.2
-18
-17.8
-17.6
-17.4
-17.2
-17
-16.8
-16.6
-16.4
-16.2
-16
-15.8
-15.6
-15.4
-15.2
-15
-14.8
-14.6
-14.4
-14.2
-14
-13.8
-13.6
-13.4
-13.2
-13
-12.8
-12.6
-12.4
-12.2
-12
-11.8
-11.6
-11.4
-11.2
-11
-10.8
-10.6
-10.4
-10.2
-10
-9.8
-9.6
-9.4
-9.2
-9
-8.8
-8.6
-8.4
-8.2
-8
-7.8
-7.6
-7.4
-7.2
-7
-6.8
-6.6
-6.4
-6.2
-6
-5.8
-5.6
-5.4
-5.2
-5
-4.8
-4.6
-4.4
-4.2
-4
-3.8
-3.6
-3.4
-3.2
-3
-2.8
-2.6
-2.4
-2.2
-2
-1.8
-1.6
-1.4
-1.2
-1
</DataArray>
</CellData>
</Piece>
</RectilinearGrid>
</VTKFile>
