<?xml version="1.0"?>
<VTKFile type="RectilinearGrid">
<RectilinearGrid WholeExtent="0 100 0 0 0 0">
<Piece Extent="0 100 0 0 0 0">
<Coordinates>
<DataArray type="Float32" format="ascii">
0
10
20
30
40
50
60
70
80
90
100
110
120
130
140
150
160
170
180
190
200
210
220
230
240
250
260
270
280
290
300
310
320
330
340
350
360
370
380
390
400
410
420
430
440
450
460
470
480
490
500
510
520
530
540
550
560
570
580
590
600
610
620
630
640
650
660
670
680
690
700
710
720
730
740
750
760
770
780
790
800
810
820
830
840
850
860
870
880
890
900
910
920
930
940
950
960
970
980
990
1000
</DataArray>
<DataArray type="Float32" format="ascii">
0
</DataArray>
<DataArray type="Float32" format="ascii">
0
</DataArray>
</Coordinates>
<CellData>
<DataArray Name="h" type="Float32" format="ascii">
8.63144
8.62817
8.62204
8.6136
8.60345
8.59254
8.58203
8.57325
8.56746
8.56574
8.56868
8.57628
8.58789
8.6023
8.618
8.63346
8.64748
8.65928
8.66861
8.67559
8.6806
8.68411
8.68656
8.68831
8.68961
8.69065
8.69151
8.69228
8.69298
8.69362
8.69422
8.69479
8.69533
8.69584
8.69633
8.6968
8.69724
8.69767
8.69808
8.69847
8.69884
8.6992
8.69953
8.69985
8.70016
8.70044
8.7007
8.70094
8.70116
8.70135
8.7015
8.70162
8.70169
8.70169
8.70158
8.70125
8.70044
8.69858
8.69435
8.68488
8.66407
8.61935
8.52572
8.33635
7.97356
7.34173
6.40917
5.3449
4.46669
3.93532
3.67853
3.56963
3.52663
3.51058
3.50522
3.50421
3.50522
3.50753
3.51099
3.51564
3.52154
3.52863
3.53675
3.54553
3.55453
3.56321
3.57107
3.57773
3.58298
3.58682
3.58939
3.59095
3.5918
3.59219
3.59233
3.59234
3.59231
3.59227
3.59223
3.59221
</DataArray>
<DataArray Name="hu" type="Float32" format="ascii">
4.32635
12.9327
21.3923
29.601
37.4589
44.8688
51.739
57.9871
63.5454
68.3668
72.4297
75.7422
78.3435
80.3007
81.702
82.6473
83.2378
83.5663
83.7112
83.7341
83.6801
83.5799
83.4534
83.3127
83.1649
83.0138
82.8612
82.7084
82.5555
82.4029
82.2506
82.0985
81.9466
81.7949
81.6433
81.4919
81.3405
81.1892
81.0379
80.8867
80.7354
80.584
80.4326
80.2811
80.1295
79.9778
79.8259
79.6737
79.5213
79.3686
79.2155
79.062
78.9078
78.7527
78.5957
78.4349
78.2655
78.0766
77.8437
77.5128
76.9704
75.9836
74.0958
70.4769
63.8453
52.9193
38.047
22.7789
11.5164
5.33001
2.53615
1.39651
0.952888
0.782677
0.714765
0.681996
0.658013
0.632042
0.599243
0.557274
0.505257
0.443651
0.374309
0.300402
0.226099
0.155937
0.0940375
0.0433789
0.00533217
-0.020387
-0.0353857
-0.0420248
-0.0428141
-0.0399395
-0.0350265
-0.0291204
-0.0227969
-0.0163261
-0.00981477
-0.00327796
</DataArray>
<DataArray Name="B" type="Float32" format="ascii">
-20.8
-20.6
-20.4
-20.2
-20
-19.8
-19.6
-19.4
-19.2
-19
-18.8
-18.6
-18.4
-18.2
-18
-17.8
-17.6
-17.4
-17.2
-17
-16.8
-16.6
-16.4
-16.2
-16
-15.8
-15.6
-15.4
-15.2
-15
-14.8
-14.6
-14.4
-14.2
-14
-13.8
-13.6
-13.4
-13.2
-13
-12.8
-12.6
-12.4
-12.2
-12
-11.8
-11.6
-11.4
-11.2
-11
-10.8
-10.6
-10.4
-10.2
-10
-9.8
-9.6
-9.4
-9.2
-9
-8.8
-8.6
-8.4
-8.2
-8
-7.8
-7.6
-7.4
-7.2
-7
-6.8
-6.6
-6.4
-6.2
-6
-5.8
-5.6
-5.4
-5.2
-5
-4.8
-4.6
-4.4
-4.2
-4
-3.8
-3.6
-3.4
-3.2
-3
-2.8
-2.6
-2.4
-2.2
-2
-1.8
-1.6
-1.4
-1.2
-1
</DataArray>
</CellData>
</Piece>
</RectilinearGrid>
</VTKFile>
