<?xml version="1.0"?>
<VTKFile type="RectilinearGrid">
<RectilinearGrid WholeExtent="0 100 0 0 0 0">
<Piece Extent="0 100 0 0 0 0">
<Coordinates>
<DataArray type="Float32" format="ascii">
0
10
20
30
40
50
60
70
80
90
100
110
120
130
140
150
160
170
180
190
200
210
220
230
240
250
260
270
280
290
300
310
320
330
340
350
360
370
380
390
400
410
420
430
440
450
460
470
480
490
500
510
520
530
540
550
560
570
580
590
600
610
620
630
640
650
660
670
680
690
700
710
720
730
740
750
760
770
780
790
800
810
820
830
840
850
860
870
880
890
900
910
920
930
940
950
960
970
980
990
1000
</DataArray>
<DataArray type="Float32" format="ascii">
0
</DataArray>
<DataArray type="Float32" format="ascii">
0
</DataArray>
</Coordinates>
<CellData>
<DataArray Name="h" type="Float32" format="ascii">
8.33344
8.33363
8.33407
8.33478
8.33577
8.33703
8.33857
8.34037
8.34244
8.34477
8.34736
8.35021
8.35331
8.35666
8.36025
8.36409
8.36816
8.37246
8.37698
8.38172
8.38666
8.39181
8.39715
8.40267
8.40837
8.41423
8.42024
8.4264
8.4327
8.43911
8.44563
8.45224
8.45893
8.46569
8.4725
8.47935
8.48621
8.49307
8.49992
8.50673
8.51348
8.52015
8.52672
8.53318
8.53949
8.54563
8.55159
8.55733
8.56284
8.56808
8.57303
8.57767
8.58197
8.5859
8.58944
8.59255
8.59519
8.59731
8.59883
8.59962
8.59943
8.59782
8.59398
8.58631
8.57171
8.54404
8.49115
8.3891
8.19245
7.82334
7.18023
6.22041
5.11694
4.21389
3.6772
3.41768
3.30028
3.24406
3.21277
3.19178
3.17543
3.16153
3.14925
3.13827
3.12849
3.11985
3.11233
3.10587
3.10043
3.09593
3.09228
3.0894
3.08719
3.08553
3.08432
3.08348
3.08292
3.08256
3.08234
3.08224
</DataArray>
<DataArray Name="hu" type="Float32" format="ascii">
0.575352
1.72651
2.87806
4.02943
5.18055
6.33136
7.48178
8.63173
9.78115
10.9299
12.078
13.2253
14.3718
15.5172
16.6616
17.8047
18.9466
20.087
21.2259
22.363
23.4984
24.6317
25.7629
26.8919
28.0183
29.1421
30.2631
31.381
32.4957
33.6069
34.7144
35.818
36.9174
38.0123
39.1024
40.1875
41.2672
42.3412
43.4091
44.4706
45.5253
46.5728
47.6126
48.6442
49.6673
50.6812
51.6855
52.6796
53.6629
54.6349
55.5948
56.542
57.4757
58.3954
59.3001
60.1888
61.0605
61.9138
62.7467
63.5562
64.3374
65.0818
65.7738
66.384
66.8556
67.0776
66.831
65.6905
62.8719
57.1199
47.0911
33.0107
18.4815
8.04368
2.62339
0.366912
-0.441699
-0.674744
-0.693613
-0.638319
-0.562101
-0.484979
-0.414207
-0.352048
-0.298771
-0.253824
-0.216316
-0.185223
-0.159487
-0.138078
-0.120033
-0.104481
-0.0906713
-0.0779792
-0.0659072
-0.0540958
-0.042307
-0.0304083
-0.0183591
-0.00614907
</DataArray>
<DataArray Name="B" type="Float32" format="ascii">
-20.8
-20.6
-20.4
-20.2
-20
-19.8
-19.6
-19.4
-19.2
-19
-18.8
-18.6
-18.4
-18.2
-18
-17.8
-17.6
-17.4
-17.2
-17
-16.8
-16.6
-16.4
-16.2
-16
-15.8
-15.6
-15.4
-15.2
-15
-14.8
-14.6
-14.4
-14.2
-14
-13.8
-13.6
-13.4
-13.2
-13
-12.8
-12.6
-12.4
-12.2
-12
-11.8
-11.6
-11.4
-11.2
-11
-10.8
-10.6
-10.4
-10.2
-10
-9.8
-9.6
-9.4
-9.2
-9
-8.8
-8.6
-8.4
-8.2
-8
-7.8
-7.6
-7.4
-7.2
-7
-6.8
-6.6
-6.4
-6.2
-6
-5.8
-5.6
-5.4
-5.2
-5
-4.8
-4.6
-4.4
-4.2
-4
-3.8
-3.6
-3.4
-3.2
-3
-2.8
-2.6
-2.4
-2.2
-2
-1.8
-1.6
-1.4
-1.2
-1
</DataArray>
</CellData>
</Piece>
</RectilinearGrid>
</VTKFile>
