<?xml version="1.0"?>
<VTKFile type="RectilinearGrid">
<RectilinearGrid WholeExtent="0 100 0 0 0 0">
<Piece Extent="0 100 0 0 0 0">
<Coordinates>
<DataArray type="Float32" format="ascii">
0
10
20
30
40
50
60
70
80
90
100
110
120
130
140
150
160
170
180
190
200
210
220
230
240
250
260
270
280
290
300
310
320
330
340
350
360
370
380
390
400
410
420
430
440
450
460
470
480
490
500
510
520
530
540
550
560
570
580
590
600
610
620
630
640
650
660
670
680
690
700
710
720
730
740
750
760
770
780
790
800
810
820
830
840
850
860
870
880
890
900
910
920
930
940
950
960
970
980
990
1000
</DataArray>
<DataArray type="Float32" format="ascii">
0
</DataArray>
<DataArray type="Float32" format="ascii">
0
</DataArray>
</Coordinates>
<CellData>
<DataArray Name="h" type="Float32" format="ascii">
5.75156
5.75184
5.75245
5.75341
5.75473
5.75641
5.75844
5.76085
5.76362
5.76676
5.77028
5.77417
5.77845
5.78312
5.78817
5.79362
5.79947
5.80572
5.81238
5.81945
5.82693
5.83484
5.84318
5.85195
5.86116
5.87082
5.88093
5.8915
5.90253
5.91404
5.92603
5.93851
5.95149
5.96498
5.97899
5.99353
6.0086
6.02423
6.04041
6.05717
6.07452
6.09246
6.11101
6.13019
6.15
6.17046
6.19158
6.21337
6.23585
6.25902
6.28289
6.30747
6.33276
6.35878
6.38551
6.41296
6.44112
6.46998
6.49953
6.52974
6.56061
6.59209
6.62416
6.65677
6.68989
6.72345
6.75742
6.79172
6.82631
6.8611
6.89605
6.93107
6.96609
7.00104
7.03585
7.07043
7.10471
7.13861
7.17206
7.20496
7.23724
7.26882
7.29964
7.32961
7.35871
7.38703
7.41516
7.44558
7.48776
7.57586
7.82249
8.51303
9.97329
11.9004
13.4565
14.3192
14.7021
14.8544
14.9118
14.931
</DataArray>
<DataArray Name="hu" type="Float32" format="ascii">
0.365676
1.09739
1.82943
2.56142
3.29335
4.02519
4.75693
5.48851
6.21994
6.95118
7.68222
8.413
9.1435
9.87365
10.6034
11.3328
12.0617
12.7901
13.518
14.2452
14.9717
15.6975
16.4224
17.1465
17.8695
18.5916
19.3124
20.032
20.7503
21.4671
22.1823
22.8958
23.6074
24.3172
25.0248
25.7302
26.4333
27.1337
27.8315
28.5265
29.2184
29.9071
30.5924
31.2742
31.9523
32.6265
33.2967
33.9627
34.6244
35.2816
35.9342
36.5821
37.2252
37.8635
38.4969
39.1254
39.7491
40.3678
40.9819
41.5913
42.1962
42.7969
43.3935
43.9863
44.5755
45.1615
45.7447
46.3252
46.9035
47.4799
48.0547
48.6282
49.2007
49.7725
50.3438
50.9149
51.4858
52.0569
52.6281
53.1996
53.7714
54.3435
54.9158
55.4882
56.0602
56.6308
57.1959
57.7412
58.2156
58.436
57.7549
54.1044
43.5654
26.2159
10.2493
1.22766
-2.1059
-2.54583
-1.80218
-0.635023
</DataArray>
<DataArray Name="B" type="Float32" format="ascii">
-20.8
-20.6
-20.4
-20.2
-20
-19.8
-19.6
-19.4
-19.2
-19
-18.8
-18.6
-18.4
-18.2
-18
-17.8
-17.6
-17.4
-17.2
-17
-16.8
-16.6
-16.4
-16.2
-16
-15.8
-15.6
-15.4
-15.2
-15
-14.8
-14.6
-14.4
-14.2
-14
-13.8
-13.6
-13.4
-13.2
-13
-12.8
-12.6
-12.4
-12.2
-12
-11.8
-11.6
-11.4
-11.2
-11
-10.8
-10.6
-10.4
-10.2
-10
-9.8
-9.6
-9.4
-9.2
-9
-8.8
-8.6
-8.4
-8.2
-8
-7.8
-7.6
-7.4
-7.2
-7
-6.8
-6.6
-6.4
-6.2
-6
-5.8
-5.6
-5.4
-5.2
-5
-4.8
-4.6
-4.4
-4.2
-4
-3.8
-3.6
-3.4
-3.2
-3
-2.8
-2.6
-2.4
-2.2
-2
-1.8
-1.6
-1.4
-1.2
-1
</DataArray>
</CellData>
</Piece>
</RectilinearGrid>
</VTKFile>
