<?xml version="1.0"?>
<VTKFile type="RectilinearGrid">
<RectilinearGrid WholeExtent="0 100 0 0 0 0">
<Piece Extent="0 100 0 0 0 0">
<Coordinates>
<DataArray type="Float32" format="ascii">
0
10
20
30
40
50
60
70
80
90
100
110
120
130
140
150
160
170
180
190
200
210
220
230
240
250
260
270
280
290
300
310
320
330
340
350
360
370
380
390
400
410
420
430
440
450
460
470
480
490
500
510
520
530
540
550
560
570
580
590
600
610
620
630
640
650
660
670
680
690
700
710
720
730
740
750
760
770
780
790
800
810
820
830
840
850
860
870
880
890
900
910
920
930
940
950
960
970
980
990
1000
</DataArray>
<DataArray type="Float32" format="ascii">
0
</DataArray>
<DataArray type="Float32" format="ascii">
0
</DataArray>
</Coordinates>
<CellData>
<DataArray Name="h" type="Float32" format="ascii">
14
14
14
14
14
14
14
14
14
14
14
14
14
14
14
14
14
14
14
13.9999
13.9995
13.9976
13.9898
13.9629
13.8866
13.7061
13.3497
12.7554
11.9089
10.8746
9.80975
8.94383
8.46448
8.32505
8.24002
7.91685
7.15828
5.98229
4.79643
4.01774
3.66377
3.5425
3.50921
3.50167
3.50025
3.50003
3.5
3.5
3.5
3.5
3.5
3.5
3.5
3.5
3.5
3.5
3.5
3.5
3.5
3.5
3.5
3.5
3.5
3.5
3.5
3.5
3.5
3.5
3.5
3.5
3.5
3.5
3.5
3.5
3.5
3.5
3.5
3.5
3.5
3.5
3.5
3.5
3.5
3.5
3.5
3.5
3.5
3.5
3.5
3.5
3.5
3.50001
3.50003
3.5002
3.50093
3.50366
3.51174
3.53007
3.55981
3.59026
</DataArray>
<DataArray Name="hu" type="Float32" format="ascii">
-8.18445e-06
-2.77473e-05
-8.42229e-06
1.77289e-05
1.82772e-05
2.15201e-05
-1.58624e-05
-2.29923e-05
-7.88284e-06
-5.97755e-06
9.23647e-06
-3.10539e-05
-2.47619e-05
2.38802e-05
2.74264e-05
1.34054e-05
-3.94991e-06
5.07537e-06
0.000154302
0.00125648
0.00785399
0.0407
0.175875
0.63668
1.93718
4.97356
10.8496
20.3326
33.2073
47.9842
62.1512
72.9051
78.4798
79.4824
77.4439
71.0052
57.0382
37.0502
18.6476
7.54796
2.80685
1.23887
0.815767
0.720891
0.703158
0.700397
0.700038
0.700003
0.700006
0.700004
0.699999
0.699997
0.7
0.700001
0.699999
0.699997
0.7
0.700003
0.7
0.7
0.700003
0.700003
0.699998
0.699997
0.7
0.700002
0.700002
0.699998
0.699998
0.699998
0.699997
0.700001
0.700002
0.700001
0.7
0.7
0.700001
0.700002
0.7
0.699999
0.699998
0.699999
0.7
0.700001
0.700001
0.700001
0.700001
0.7
0.7
0.7
0.699995
0.699961
0.699743
0.69857
0.693328
0.674206
0.6186
0.494723
0.297081
0.0962056
</DataArray>
<DataArray Name="B" type="Float32" format="ascii">
-20.8
-20.6
-20.4
-20.2
-20
-19.8
-19.6
-19.4
-19.2
-19
-18.8
-18.6
-18.4
-18.2
-18
-17.8
-17.6
-17.4
-17.2
-17
-16.8
-16.6
-16.4
-16.2
-16
-15.8
-15.6
-15.4
-15.2
-15
-14.8
-14.6
-14.4
-14.2
-14
-13.8
-13.6
-13.4
-13.2
-13
-12.8
-12.6
-12.4
-12.2
-12
-11.8
-11.6
-11.4
-11.2
-11
-10.8
-10.6
-10.4
-10.2
-10
-9.8
-9.6
-9.4
-9.2
-9
-8.8
-8.6
-8.4
-8.2
-8
-7.8
-7.6
-7.4
-7.2
-7
-6.8
-6.6
-6.4
-6.2
-6
-5.8
-5.6
-5.4
-5.2
-5
-4.8
-4.6
-4.4
-4.2
-4
-3.8
-3.6
-3.4
-3.2
-3
-2.8
-2.6
-2.4
-2.2
-2
-1.8
-1.6
-1.4
-1.2
-1
</DataArray>
</CellData>
</Piece>
</RectilinearGrid>
</VTKFile>
