<?xml version="1.0"?>
<VTKFile type="RectilinearGrid">
<RectilinearGrid WholeExtent="0 100 0 0 0 0">
<Piece Extent="0 100 0 0 0 0">
<Coordinates>
<DataArray type="Float32" format="ascii">
0
10
20
30
40
50
60
70
80
90
100
110
120
130
140
150
160
170
180
190
200
210
220
230
240
250
260
270
280
290
300
310
320
330
340
350
360
370
380
390
400
410
420
430
440
450
460
470
480
490
500
510
520
530
540
550
560
570
580
590
600
610
620
630
640
650
660
670
680
690
700
710
720
730
740
750
760
770
780
790
800
810
820
830
840
850
860
870
880
890
900
910
920
930
940
950
960
970
980
990
1000
</DataArray>
<DataArray type="Float32" format="ascii">
0
</DataArray>
<DataArray type="Float32" format="ascii">
0
</DataArray>
</Coordinates>
<CellData>
<DataArray Name="h" type="Float32" format="ascii">
5.76809
5.76837
5.76898
5.76994
5.77126
5.77293
5.77496
5.77736
5.78013
5.78327
5.78678
5.79067
5.79494
5.79959
5.80464
5.81008
5.81591
5.82215
5.8288
5.83585
5.84332
5.85121
5.85953
5.86828
5.87747
5.8871
5.89718
5.90772
5.91872
5.93019
5.94215
5.95459
5.96752
5.98097
5.99492
6.00941
6.02443
6.03999
6.05612
6.07281
6.09008
6.10795
6.12642
6.14551
6.16524
6.18561
6.20663
6.22832
6.2507
6.27377
6.29753
6.322
6.34719
6.37309
6.39971
6.42705
6.4551
6.48385
6.5133
6.54341
6.57418
6.60557
6.63755
6.67008
6.70312
6.73662
6.77053
6.80478
6.83932
6.87409
6.909
6.944
6.97901
7.01395
7.04875
7.08333
7.11762
7.15153
7.18498
7.21789
7.25019
7.28178
7.3126
7.34258
7.37165
7.39988
7.42764
7.45675
7.49414
7.56547
7.75849
8.31695
9.60689
11.5135
13.2147
14.2215
14.6827
14.8679
14.9375
14.9605
</DataArray>
<DataArray Name="hu" type="Float32" format="ascii">
0.367154
1.10182
1.83682
2.57178
3.30667
4.04148
4.77617
5.51072
6.24511
6.97933
7.71334
8.44709
9.18057
9.9137
10.6465
11.3788
12.1107
12.8421
13.573
14.3032
15.0328
15.7616
16.4895
17.2166
17.9427
18.6678
19.3917
20.1144
20.8357
21.5556
22.2739
22.9905
23.7053
24.4182
25.129
25.8375
26.5437
27.2473
27.9483
28.6464
29.3415
30.0334
30.7219
31.4069
32.0882
32.7656
33.4389
34.1081
34.7729
35.4332
36.0889
36.7398
37.3859
38.0272
38.6635
39.2948
39.9211
40.5426
41.1592
41.771
42.3783
42.9812
43.5799
44.1746
44.7657
45.3534
45.9381
46.52
47.0996
47.6771
48.2529
48.8273
49.4005
49.9729
50.5447
51.1162
51.6874
52.2586
52.8299
53.4014
53.9732
54.5451
55.1172
55.6893
56.2612
56.8319
57.3985
57.9507
58.4507
58.7626
58.3994
55.7225
46.9864
30.552
13.4692
2.86673
-1.42999
-2.29383
-1.7143
-0.613637
</DataArray>
<DataArray Name="B" type="Float32" format="ascii">
-20.8
-20.6
-20.4
-20.2
-20
-19.8
-19.6
-19.4
-19.2
-19
-18.8
-18.6
-18.4
-18.2
-18
-17.8
-17.6
-17.4
-17.2
-17
-16.8
-16.6
-16.4
-16.2
-16
-15.8
-15.6
-15.4
-15.2
-15
-14.8
-14.6
-14.4
-14.2
-14
-13.8
-13.6
-13.4
-13.2
-13
-12.8
-12.6
-12.4
-12.2
-12
-11.8
-11.6
-11.4
-11.2
-11
-10.8
-10.6
-10.4
-10.2
-10
-9.8
-9.6
-9.4
-9.2
-9
-8.8
-8.6
-8.4
-8.2
-8
-7.8
-7.6
-7.4
-7.2
-7
-6.8
-6.6
-6.4
-6.2
-6
-5.8
-5.6
-5.4
-5.2
-5
-4.8
-4.6
-4.4
-4.2
-4
-3.8
-3.6
-3.4
-3.2
-3
-2.8
-2.6
-2.4
-2.2
-2
-1.8
-1.6
-1.4
-1.2
-1
</DataArray>
</CellData>
</Piece>
</RectilinearGrid>
</VTKFile>
