<?xml version="1.0"?>
<VTKFile type="RectilinearGrid">
<RectilinearGrid WholeExtent="0 100 0 0 0 0">
<Piece Extent="0 100 0 0 0 0">
<Coordinates>
<DataArray type="Float32" format="ascii">
0
10
20
30
40
50
60
70
80
90
100
110
120
130
140
150
160
170
180
190
200
210
220
230
240
250
260
270
280
290
300
310
320
330
340
350
360
370
380
390
400
410
420
430
440
450
460
470
480
490
500
510
520
530
540
550
560
570
580
590
600
610
620
630
640
650
660
670
680
690
700
710
720
730
740
750
760
770
780
790
800
810
820
830
840
850
860
870
880
890
900
910
920
930
940
950
960
970
980
990
1000
</DataArray>
<DataArray type="Float32" format="ascii">
0
</DataArray>
<DataArray type="Float32" format="ascii">
0
</DataArray>
</Coordinates>
<CellData>
<DataArray Name="h" type="Float32" format="ascii">
4.66352
4.66657
4.67287
4.68283
4.69702
4.71617
4.74109
4.77262
4.81149
4.85824
4.91309
4.97582
5.04581
5.12201
5.20316
5.28788
5.37488
5.46308
5.55165
5.64001
5.7278
5.81482
5.90094
5.98609
6.07023
6.1533
6.23528
6.3161
6.39572
6.47407
6.55107
6.62666
6.70074
6.77323
6.84402
6.91301
6.98008
7.04511
7.10797
7.16853
7.22665
7.2822
7.33502
7.385
7.43201
7.47593
7.51668
7.55419
7.58842
7.61939
7.64715
7.67181
7.69354
7.71258
7.72923
7.74384
7.75683
7.76864
7.7797
7.79043
7.80117
7.81217
7.82354
7.83522
7.84704
7.85871
7.86988
7.8802
7.88937
7.89717
7.90354
7.90849
7.91215
7.91472
7.91639
7.9174
7.91791
7.9181
7.91806
7.91789
7.91763
7.91731
7.91695
7.91657
7.91615
7.91571
7.91524
7.91473
7.91416
7.91348
7.91258
7.91118
7.90858
7.9031
7.89092
7.86426
7.81161
7.73269
7.68181
7.71236
</DataArray>
<DataArray Name="hu" type="Float32" format="ascii">
0.749364
2.24487
3.73073
5.20052
6.6479
8.06671
9.45124
10.7966
12.0989
13.3563
14.5688
15.739
16.8718
17.9741
19.0541
20.1199
21.179
22.2371
23.2985
24.3656
25.4394
26.5199
27.6067
28.6986
29.7945
30.8932
31.9931
33.0929
34.1909
35.2854
36.3748
37.457
38.5301
39.5918
40.64
41.672
42.6853
43.6772
44.6446
45.5847
46.4944
47.3703
48.2095
49.0088
49.7652
50.4759
51.1385
51.7509
52.3116
52.8196
53.2745
53.6768
54.0274
54.328
54.5809
54.7889
54.9548
55.0819
55.1736
55.2333
55.2647
55.2712
55.257
55.2261
55.1829
55.1317
55.0767
55.0218
54.97
54.9236
54.8838
54.8509
54.8247
54.8043
54.7886
54.7765
54.7669
54.7589
54.752
54.7455
54.7392
54.7329
54.7263
54.7196
54.7125
54.705
54.697
54.6884
54.6789
54.6674
54.6519
54.6271
54.5791
54.4724
54.2156
53.5703
51.9162
47.6623
37.093
14.9347
</DataArray>
<DataArray Name="B" type="Float32" format="ascii">
-2
-2
-2
-2
-2
-2
-2
-2
-2
-2
-2
-2
-2
-2
-2
-2
-2
-2
-2
-2
-2
-2
-2
-2
-2
-2
-2
-2
-2
-2
-2
-2
-2
-2
-2
-2
-2
-2
-2
-2
-2
-2
-2
-2
-2
-2
-2
-2
-2
-2
-2
-2
-2
-2
-2
-2
-2
-2
-2
-2
-2
-2
-2
-2
-2
-2
-2
-2
-2
-2
-2
-2
-2
-2
-2
-2
-2
-2
-2
-2
-2
-2
-2
-2
-2
-2
-2
-2
-2
-2
-2
-2
-2
-2
-2
-2
-2
-2
-2
-2
</DataArray>
</CellData>
</Piece>
</RectilinearGrid>
</VTKFile>
