<?xml version="1.0"?>
<VTKFile type="RectilinearGrid">
<RectilinearGrid WholeExtent="0 100 0 0 0 0">
<Piece Extent="0 100 0 0 0 0">
<Coordinates>
<DataArray type="Float32" format="ascii">
0
10
20
30
40
50
60
70
80
90
100
110
120
130
140
150
160
170
180
190
200
210
220
230
240
250
260
270
280
290
300
310
320
330
340
350
360
370
380
390
400
410
420
430
440
450
460
470
480
490
500
510
520
530
540
550
560
570
580
590
600
610
620
630
640
650
660
670
680
690
700
710
720
730
740
750
760
770
780
790
800
810
820
830
840
850
860
870
880
890
900
910
920
930
940
950
960
970
980
990
1000
</DataArray>
<DataArray type="Float32" format="ascii">
0
</DataArray>
<DataArray type="Float32" format="ascii">
0
</DataArray>
</Coordinates>
<CellData>
<DataArray Name="h" type="Float32" format="ascii">
6.14783
6.14772
6.14749
6.14715
6.1467
6.14614
6.14547
6.14468
6.14379
6.14278
6.14166
6.14044
6.1391
6.13766
6.1361
6.13445
6.13268
6.13081
6.12883
6.12676
6.12457
6.12229
6.11991
6.11743
6.11485
6.11218
6.10942
6.10656
6.10362
6.10059
6.09747
6.09427
6.09099
6.08764
6.0842
6.0807
6.07712
6.07348
6.06978
6.06603
6.06222
6.05836
6.05447
6.05054
6.04659
6.04262
6.03865
6.03467
6.03069
6.02673
6.0228
6.01891
6.01507
6.01129
6.00759
6.00399
6.00049
5.99713
5.99391
5.99087
5.98801
5.98536
5.98296
5.98082
5.97897
5.97744
5.97627
5.97548
5.9751
5.97519
5.97578
5.97696
5.97892
5.98225
5.98879
6.00446
6.04807
6.17594
6.52643
7.29218
8.4227
9.47574
10.1354
10.4556
10.593
10.6498
10.6736
10.6843
10.6898
10.6932
10.6956
10.6975
10.6991
10.7004
10.7016
10.7025
10.7033
10.7038
10.7042
10.7044
</DataArray>
<DataArray Name="hu" type="Float32" format="ascii">
0.20686
0.620572
1.03427
1.44795
1.86159
2.27517
2.68871
3.10217
3.51556
3.92884
4.34202
4.75507
5.16797
5.58073
5.99331
6.40571
6.81791
7.2299
7.64164
8.05314
8.46437
8.8753
9.28593
9.69624
10.1062
10.5158
10.925
11.3338
11.7422
12.1502
12.5577
12.9647
13.3713
13.7773
14.1828
14.5877
14.992
15.3957
15.7987
16.201
16.6027
17.0035
17.4036
17.8028
18.2011
18.5984
18.9948
19.3901
19.7843
20.1774
20.5693
20.9598
21.3491
21.7369
22.1232
22.5079
22.891
23.2722
23.6516
24.029
24.4043
24.7775
25.1482
25.5165
25.8822
26.2452
26.6053
26.9623
27.3161
27.6666
28.0134
28.3561
28.6937
29.023
29.3339
29.5935
29.6958
29.3048
27.4597
22.2865
13.0428
3.17748
-3.41998
-6.50554
-7.53258
-7.62004
-7.32002
-6.86624
-6.35228
-5.81476
-5.26787
-4.71701
-4.16427
-3.61047
-3.05597
-2.50095
-1.94555
-1.38987
-0.833999
-0.278012
</DataArray>
<DataArray Name="B" type="Float32" format="ascii">
-2
-2
-2
-2
-2
-2
-2
-2
-2
-2
-2
-2
-2
-2
-2
-2
-2
-2
-2
-2
-2
-2
-2
-2
-2
-2
-2
-2
-2
-2
-2
-2
-2
-2
-2
-2
-2
-2
-2
-2
-2
-2
-2
-2
-2
-2
-2
-2
-2
-2
-2
-2
-2
-2
-2
-2
-2
-2
-2
-2
-2
-2
-2
-2
-2
-2
-2
-2
-2
-2
-2
-2
-2
-2
-2
-2
-2
-2
-2
-2
-2
-2
-2
-2
-2
-2
-2
-2
-2
-2
-2
-2
-2
-2
-2
-2
-2
-2
-2
-2
</DataArray>
</CellData>
</Piece>
</RectilinearGrid>
</VTKFile>
