<?xml version="1.0"?>
<VTKFile type="RectilinearGrid">
<RectilinearGrid WholeExtent="0 100 0 0 0 0">
<Piece Extent="0 100 0 0 0 0">
<Coordinates>
<DataArray type="Float32" format="ascii">
0
10
20
30
40
50
60
70
80
90
100
110
120
130
140
150
160
170
180
190
200
210
220
230
240
250
260
270
280
290
300
310
320
330
340
350
360
370
380
390
400
410
420
430
440
450
460
470
480
490
500
510
520
530
540
550
560
570
580
590
600
610
620
630
640
650
660
670
680
690
700
710
720
730
740
750
760
770
780
790
800
810
820
830
840
850
860
870
880
890
900
910
920
930
940
950
960
970
980
990
1000
</DataArray>
<DataArray type="Float32" format="ascii">
0
</DataArray>
<DataArray type="Float32" format="ascii">
0
</DataArray>
</Coordinates>
<CellData>
<DataArray Name="h" type="Float32" format="ascii">
9.85414
9.85388
9.85336
9.85258
9.85153
9.85023
9.84866
9.84683
9.84473
9.84237
9.83974
9.83684
9.83367
9.83022
9.82651
9.82251
9.81823
9.81367
9.80883
9.80369
9.79826
9.79253
9.7865
9.78017
9.77352
9.76655
9.75927
9.75167
9.74373
9.73545
9.72682
9.71783
9.70848
9.69875
9.68866
9.67818
9.66731
9.65603
9.64429
9.63201
9.61903
9.60497
9.58892
9.56869
9.53872
9.48506
9.37293
9.12075
8.5695
7.55309
6.26047
5.29975
4.85621
4.69181
4.62554
4.58873
4.56039
4.5345
4.50935
4.48446
4.45971
4.43509
4.41063
4.38636
4.36233
4.33859
4.31521
4.29225
4.26978
4.24787
4.22659
4.20601
4.18619
4.16718
4.14903
4.1318
4.11549
4.10014
4.08576
4.07233
4.05986
4.04833
4.03771
4.02796
4.01907
4.01098
4.00366
3.99707
3.99117
3.98591
3.98127
3.97719
3.97366
3.97064
3.9681
3.96602
3.96438
3.96316
3.96236
3.96196
</DataArray>
<DataArray Name="hu" type="Float32" format="ascii">
0.362078
1.0862
1.81021
2.53406
3.25769
3.98102
4.70398
5.42652
6.14855
6.87002
7.59085
8.31097
9.03031
9.74878
10.4663
11.1828
11.8982
12.6125
13.3254
14.0369
14.747
15.4556
16.1624
16.8676
17.5708
18.2719
18.971
19.6677
20.362
21.0538
21.743
22.4295
23.113
23.7933
24.4702
25.1434
25.8128
26.4779
27.1382
27.7928
28.4394
29.0728
29.6807
30.2318
30.6488
30.7363
30.0143
27.396
20.994
9.71465
-2.63436
-10.1512
-12.8582
-13.4977
-13.4972
-13.3146
-13.0811
-12.8338
-12.5831
-12.3321
-12.0813
-11.831
-11.5809
-11.3308
-11.0805
-10.8296
-10.5777
-10.3244
-10.0692
-9.81173
-9.5515
-9.28806
-9.02099
-8.7499
-8.47443
-8.19429
-7.90925
-7.61913
-7.32381
-7.02325
-6.71746
-6.40651
-6.09051
-5.76961
-5.44402
-5.11397
-4.77969
-4.44146
-4.09956
-3.75429
-3.40593
-3.0548
-2.70119
-2.34539
-1.98772
-1.62847
-1.26792
-0.90637
-0.544107
-0.181416
</DataArray>
<DataArray Name="B" type="Float32" format="ascii">
-2
-2
-2
-2
-2
-2
-2
-2
-2
-2
-2
-2
-2
-2
-2
-2
-2
-2
-2
-2
-2
-2
-2
-2
-2
-2
-2
-2
-2
-2
-2
-2
-2
-2
-2
-2
-2
-2
-2
-2
-2
-2
-2
-2
-2
-2
-2
-2
-2
-2
-2
-2
-2
-2
-2
-2
-2
-2
-2
-2
-2
-2
-2
-2
-2
-2
-2
-2
-2
-2
-2
-2
-2
-2
-2
-2
-2
-2
-2
-2
-2
-2
-2
-2
-2
-2
-2
-2
-2
-2
-2
-2
-2
-2
-2
-2
-2
-2
-2
-2
</DataArray>
</CellData>
</Piece>
</RectilinearGrid>
</VTKFile>
