<?xml version="1.0"?>
<VTKFile type="RectilinearGrid">
<RectilinearGrid WholeExtent="0 100 0 0 0 0">
<Piece Extent="0 100 0 0 0 0">
<Coordinates>
<DataArray type="Float32" format="ascii">
0
10
20
30
40
50
60
70
80
90
100
110
120
130
140
150
160
170
180
190
200
210
220
230
240
250
260
270
280
290
300
310
320
330
340
350
360
370
380
390
400
410
420
430
440
450
460
470
480
490
500
510
520
530
540
550
560
570
580
590
600
610
620
630
640
650
660
670
680
690
700
710
720
730
740
750
760
770
780
790
800
810
820
830
840
850
860
870
880
890
900
910
920
930
940
950
960
970
980
990
1000
</DataArray>
<DataArray type="Float32" format="ascii">
0
</DataArray>
<DataArray type="Float32" format="ascii">
0
</DataArray>
</Coordinates>
<CellData>
<DataArray Name="h" type="Float32" format="ascii">
3.25329
3.2616
3.27797
3.30191
3.33276
3.36975
3.41206
3.45891
3.50957
3.5634
3.61984
3.67845
3.73886
3.80075
3.8639
3.92808
3.99312
4.05889
4.12524
4.19208
4.25931
4.32684
4.39461
4.46254
4.5306
4.59872
4.66687
4.735
4.80309
4.8711
4.93901
5.0068
5.07443
5.1419
5.20919
5.27628
5.34317
5.40985
5.47633
5.54263
5.60875
5.67475
5.74066
5.80655
5.8725
5.93859
6.00492
6.07158
6.13864
6.20616
6.27412
6.34249
6.41113
6.47987
6.54846
6.61662
6.68403
6.75038
6.81539
6.87884
6.94054
7.0004
7.05836
7.11442
7.16861
7.22097
7.27155
7.3204
7.36751
7.41289
7.45652
7.49836
7.53834
7.57643
7.61258
7.64686
7.67969
7.71259
7.7507
7.81063
7.94267
8.27844
9.04813
10.3376
11.7481
12.7784
13.3418
13.6041
13.7182
13.7676
13.7899
13.8009
13.8069
13.8106
13.8131
13.8148
13.8159
13.8167
13.8172
13.8174
</DataArray>
<DataArray Name="hu" type="Float32" format="ascii">
0.143008
0.431157
0.725636
1.03045
1.34926
1.68525
2.04097
2.41825
2.81821
3.24128
3.6873
4.15568
4.64551
5.15573
5.6852
6.23278
6.79741
7.37808
7.97386
8.58395
9.2076
9.84413
10.4929
11.1534
11.8252
12.5077
13.2005
13.9032
14.6155
15.337
16.0674
16.8062
17.5533
18.3083
19.0709
19.8406
20.6173
21.4004
22.1897
22.9845
23.7844
24.5888
25.3969
26.2079
27.021
27.8352
28.6493
29.4625
30.2738
31.0822
31.8873
32.6886
33.4861
34.2801
35.0713
35.8603
36.648
37.4351
38.2219
39.0086
39.7947
40.5794
41.3611
42.1383
42.9089
43.6705
44.4209
45.1578
45.8786
46.5812
47.2632
47.9226
48.5571
49.1648
49.7435
50.2908
50.8026
51.2692
51.6621
51.891
51.6697
50.1395
45.2849
35.0784
21.8116
10.9711
4.72688
1.83702
0.663847
0.232934
0.0929833
0.0569888
0.0527479
0.0544355
0.0539667
0.0496598
0.0419046
0.0315942
0.0195914
0.00663233
</DataArray>
<DataArray Name="B" type="Float32" format="ascii">
-2
-2
-2
-2
-2
-2
-2
-2
-2
-2
-2
-2
-2
-2
-2
-2
-2
-2
-2
-2
-2
-2
-2
-2
-2
-2
-2
-2
-2
-2
-2
-2
-2
-2
-2
-2
-2
-2
-2
-2
-2
-2
-2
-2
-2
-2
-2
-2
-2
-2
-2
-2
-2
-2
-2
-2
-2
-2
-2
-2
-2
-2
-2
-2
-2
-2
-2
-2
-2
-2
-2
-2
-2
-2
-2
-2
-2
-2
-2
-2
-2
-2
-2
-2
-2
-2
-2
-2
-2
-2
-2
-2
-2
-2
-2
-2
-2
-2
-2
-2
</DataArray>
</CellData>
</Piece>
</RectilinearGrid>
</VTKFile>
