<?xml version="1.0"?>
<VTKFile type="RectilinearGrid">
<RectilinearGrid WholeExtent="0 100 0 0 0 0">
<Piece Extent="0 100 0 0 0 0">
<Coordinates>
<DataArray type="Float32" format="ascii">
0
10
20
30
40
50
60
70
80
90
100
110
120
130
140
150
160
170
180
190
200
210
220
230
240
250
260
270
280
290
300
310
320
330
340
350
360
370
380
390
400
410
420
430
440
450
460
470
480
490
500
510
520
530
540
550
560
570
580
590
600
610
620
630
640
650
660
670
680
690
700
710
720
730
740
750
760
770
780
790
800
810
820
830
840
850
860
870
880
890
900
910
920
930
940
950
960
970
980
990
1000
</DataArray>
<DataArray type="Float32" format="ascii">
0
</DataArray>
<DataArray type="Float32" format="ascii">
0
</DataArray>
</Coordinates>
<CellData>
<DataArray Name="h" type="Float32" format="ascii">
10.7815
10.7811
10.7803
10.7792
10.7776
10.7757
10.7734
10.7706
10.7675
10.764
10.7601
10.7557
10.7509
10.7458
10.7401
10.734
10.7275
10.7205
10.7131
10.7051
10.6967
10.6878
10.6783
10.6683
10.6578
10.6466
10.6348
10.6223
10.6088
10.5938
10.5759
10.552
10.5136
10.4401
10.2806
9.92178
9.17395
7.94365
6.63614
5.81481
5.46375
5.33049
5.27161
5.23557
5.20635
5.17916
5.15259
5.12619
5.09985
5.07353
5.04723
5.02095
4.99472
4.96855
4.94249
4.91657
4.89084
4.86536
4.8402
4.81543
4.79112
4.76737
4.74425
4.72186
4.70027
4.67955
4.65978
4.64101
4.62328
4.60663
4.59107
4.5766
4.56322
4.55091
4.53964
4.52936
4.52004
4.51161
4.50404
4.49725
4.4912
4.48582
4.48106
4.47686
4.47317
4.46995
4.46714
4.46471
4.46261
4.4608
4.45926
4.45796
4.45686
4.45595
4.45521
4.45461
4.45415
4.45381
4.4536
4.45349
</DataArray>
<DataArray Name="hu" type="Float32" format="ascii">
0.396368
1.18903
1.98146
2.77349
3.56496
4.35571
5.14558
5.93439
6.72197
7.50815
8.29275
9.07559
9.85647
10.6352
11.4116
12.1853
12.9563
13.7243
14.489
15.2502
16.0076
16.761
17.51
18.2543
18.9935
19.7272
20.4546
21.1742
21.8829
22.5733
23.2276
23.8016
24.1846
24.0997
22.8804
19.1198
10.8464
-1.67653
-12.9312
-18.6358
-20.4537
-20.7949
-20.6817
-20.4348
-20.1491
-19.8525
-19.5535
-19.2544
-18.956
-18.6586
-18.3621
-18.0665
-17.7718
-17.4777
-17.1841
-16.8907
-16.5972
-16.3033
-16.0085
-15.7124
-15.4145
-15.1142
-14.8111
-14.5044
-14.1938
-13.8786
-13.5584
-13.2328
-12.9015
-12.5641
-12.2204
-11.8703
-11.5139
-11.151
-10.7818
-10.4064
-10.025
-9.63783
-9.24516
-8.84724
-8.44438
-8.03687
-7.62501
-7.20912
-6.78948
-6.36639
-5.94013
-5.51099
-5.07922
-4.64508
-4.20881
-3.77066
-3.33084
-2.88958
-2.44708
-2.00355
-1.55918
-1.11416
-0.668678
-0.222923
</DataArray>
<DataArray Name="B" type="Float32" format="ascii">
-2
-2
-2
-2
-2
-2
-2
-2
-2
-2
-2
-2
-2
-2
-2
-2
-2
-2
-2
-2
-2
-2
-2
-2
-2
-2
-2
-2
-2
-2
-2
-2
-2
-2
-2
-2
-2
-2
-2
-2
-2
-2
-2
-2
-2
-2
-2
-2
-2
-2
-2
-2
-2
-2
-2
-2
-2
-2
-2
-2
-2
-2
-2
-2
-2
-2
-2
-2
-2
-2
-2
-2
-2
-2
-2
-2
-2
-2
-2
-2
-2
-2
-2
-2
-2
-2
-2
-2
-2
-2
-2
-2
-2
-2
-2
-2
-2
-2
-2
-2
</DataArray>
</CellData>
</Piece>
</RectilinearGrid>
</VTKFile>
