<?xml version="1.0"?>
<VTKFile type="RectilinearGrid">
<RectilinearGrid WholeExtent="0 100 0 0 0 0">
<Piece Extent="0 100 0 0 0 0">
<Coordinates>
<DataArray type="Float32" format="ascii">
0
10
20
30
40
50
60
70
80
90
100
110
120
130
140
150
160
170
180
190
200
210
220
230
240
250
260
270
280
290
300
310
320
330
340
350
360
370
380
390
400
410
420
430
440
450
460
470
480
490
500
510
520
530
540
550
560
570
580
590
600
610
620
630
640
650
660
670
680
690
700
710
720
730
740
750
760
770
780
790
800
810
820
830
840
850
860
870
880
890
900
910
920
930
940
950
960
970
980
990
1000
</DataArray>
<DataArray type="Float32" format="ascii">
0
</DataArray>
<DataArray type="Float32" format="ascii">
0
</DataArray>
</Coordinates>
<CellData>
<DataArray Name="h" type="Float32" format="ascii">
6.05128
6.05117
6.05095
6.05062
6.05018
6.04963
6.04898
6.04821
6.04734
6.04635
6.04527
6.04407
6.04277
6.04136
6.03986
6.03824
6.03653
6.03471
6.03279
6.03078
6.02866
6.02645
6.02415
6.02175
6.01926
6.01667
6.014
6.01125
6.00841
6.00548
6.00248
5.9994
5.99624
5.99301
5.98971
5.98635
5.98292
5.97944
5.9759
5.97231
5.96869
5.96503
5.96134
5.95762
5.9539
5.95017
5.94644
5.94272
5.93902
5.93535
5.93173
5.92816
5.92466
5.92125
5.91793
5.91473
5.91166
5.90875
5.90601
5.90347
5.90114
5.89906
5.89725
5.89573
5.89455
5.89372
5.89328
5.89326
5.89373
5.89477
5.89661
5.89992
5.90684
5.9242
5.97359
6.11849
6.50819
7.32458
8.46178
9.462
10.0626
10.3475
10.4689
10.5193
10.5408
10.5508
10.5561
10.5596
10.5622
10.5643
10.5662
10.5678
10.5692
10.5704
10.5715
10.5723
10.573
10.5735
10.5739
10.574
</DataArray>
<DataArray Name="hu" type="Float32" format="ascii">
0.203008
0.609022
1.01502
1.42099
1.82692
2.2328
2.63862
3.04436
3.45002
3.85558
4.26102
4.66634
5.07151
5.47653
5.88137
6.28602
6.69046
7.09468
7.49867
7.90241
8.30587
8.70903
9.11188
9.5144
9.91657
10.3184
10.7198
11.1208
11.5214
11.9215
12.3212
12.7204
13.1191
13.5173
13.9149
14.3119
14.7083
15.1041
15.4992
15.8935
16.2872
16.68
17.072
17.4631
17.8533
18.2425
18.6306
19.0177
19.4036
19.7884
20.1718
20.554
20.9347
21.3139
21.6916
22.0676
22.4418
22.8141
23.1845
23.5528
23.9189
24.2827
24.6441
25.0028
25.3588
25.712
26.0621
26.409
26.7524
27.0919
27.4261
27.7514
28.0559
28.3013
28.3643
27.8584
25.7097
20.0114
10.4787
0.956666
-5.08187
-7.79355
-8.6456
-8.66547
-8.3442
-7.88729
-7.3768
-6.84502
-6.30453
-5.76026
-5.21416
-4.66702
-4.1192
-3.57088
-3.02216
-2.47311
-1.92381
-1.3743
-0.824641
-0.27489
</DataArray>
<DataArray Name="B" type="Float32" format="ascii">
-2
-2
-2
-2
-2
-2
-2
-2
-2
-2
-2
-2
-2
-2
-2
-2
-2
-2
-2
-2
-2
-2
-2
-2
-2
-2
-2
-2
-2
-2
-2
-2
-2
-2
-2
-2
-2
-2
-2
-2
-2
-2
-2
-2
-2
-2
-2
-2
-2
-2
-2
-2
-2
-2
-2
-2
-2
-2
-2
-2
-2
-2
-2
-2
-2
-2
-2
-2
-2
-2
-2
-2
-2
-2
-2
-2
-2
-2
-2
-2
-2
-2
-2
-2
-2
-2
-2
-2
-2
-2
-2
-2
-2
-2
-2
-2
-2
-2
-2
-2
</DataArray>
</CellData>
</Piece>
</RectilinearGrid>
</VTKFile>
