<?xml version="1.0"?>
<VTKFile type="RectilinearGrid">
<RectilinearGrid WholeExtent="0 100 0 0 0 0">
<Piece Extent="0 100 0 0 0 0">
<Coordinates>
<DataArray type="Float32" format="ascii">
0
10
20
30
40
50
60
70
80
90
100
110
120
130
140
150
160
170
180
190
200
210
220
230
240
250
260
270
280
290
300
310
320
330
340
350
360
370
380
390
400
410
420
430
440
450
460
470
480
490
500
510
520
530
540
550
560
570
580
590
600
610
620
630
640
650
660
670
680
690
700
710
720
730
740
750
760
770
780
790
800
810
820
830
840
850
860
870
880
890
900
910
920
930
940
950
960
970
980
990
1000
</DataArray>
<DataArray type="Float32" format="ascii">
0
</DataArray>
<DataArray type="Float32" format="ascii">
0
</DataArray>
</Coordinates>
<CellData>
<DataArray Name="h" type="Float32" format="ascii">
14
14
14
13.9999
13.9998
13.9993
13.9981
13.9953
13.9892
13.9769
13.9537
13.9133
13.8481
13.75
13.6116
13.4277
13.1954
12.915
12.5885
12.2201
11.8146
11.3777
10.9155
10.4353
9.9458
9.45877
8.99073
8.56443
8.20814
7.94877
7.79719
7.73566
7.7253
7.73128
7.73776
7.74215
7.74501
7.74674
7.74757
7.74758
7.74666
7.74432
7.73899
7.72613
7.69347
7.60989
7.40269
6.92974
6.02958
4.85048
3.99069
3.63663
3.53373
3.50791
3.50179
3.50039
3.50008
3.50002
3.5
3.5
3.5
3.5
3.5
3.5
3.5
3.5
3.5
3.5
3.5
3.5
3.5
3.5
3.5
3.5
3.5
3.5
3.5
3.5
3.5
3.50001
3.50002
3.50006
3.50017
3.50045
3.50108
3.50241
3.50496
3.50943
3.51648
3.52647
3.53911
3.5532
3.56695
3.57854
3.58687
3.59189
3.59435
3.5953
3.59557
3.59562
</DataArray>
<DataArray Name="hu" type="Float32" format="ascii">
1.51569e-05
7.91701e-05
0.000298676
0.00100772
0.00310455
0.00888301
0.023636
0.0585187
0.134869
0.289466
0.57904
1.08094
1.88705
3.09022
4.76624
6.95755
9.6645
12.8463
16.4297
20.321
24.4174
28.6154
32.8149
36.9206
40.8404
44.4821
47.7491
50.5391
52.7484
54.2972
55.1828
55.533
55.577
55.5189
55.4539
55.398
55.3474
55.299
55.2503
55.1988
55.1399
55.0625
54.9361
54.6758
54.057
52.5233
48.8426
40.9377
27.6511
13.3122
4.75765
1.75479
0.954218
0.759208
0.713388
0.70293
0.700619
0.700124
0.700023
0.700004
0.7
0.7
0.7
0.7
0.7
0.7
0.7
0.7
0.7
0.7
0.7
0.7
0.7
0.7
0.7
0.7
0.7
0.699996
0.699987
0.699955
0.699855
0.699563
0.698767
0.696778
0.692212
0.682606
0.664134
0.631832
0.58073
0.508075
0.415977
0.312845
0.211879
0.126471
0.0649176
0.0278093
0.00956164
0.00250497
0.000471386
5.67184e-05
</DataArray>
<DataArray Name="B" type="Float32" format="ascii">
-2
-2
-2
-2
-2
-2
-2
-2
-2
-2
-2
-2
-2
-2
-2
-2
-2
-2
-2
-2
-2
-2
-2
-2
-2
-2
-2
-2
-2
-2
-2
-2
-2
-2
-2
-2
-2
-2
-2
-2
-2
-2
-2
-2
-2
-2
-2
-2
-2
-2
-2
-2
-2
-2
-2
-2
-2
-2
-2
-2
-2
-2
-2
-2
-2
-2
-2
-2
-2
-2
-2
-2
-2
-2
-2
-2
-2
-2
-2
-2
-2
-2
-2
-2
-2
-2
-2
-2
-2
-2
-2
-2
-2
-2
-2
-2
-2
-2
-2
-2
</DataArray>
</CellData>
</Piece>
</RectilinearGrid>
</VTKFile>
