<?xml version="1.0"?>
<VTKFile type="RectilinearGrid">
<RectilinearGrid WholeExtent="0 100 0 0 0 0">
<Piece Extent="0 100 0 0 0 0">
<Coordinates>
<DataArray type="Float32" format="ascii">
0
10
20
30
40
50
60
70
80
90
100
110
120
130
140
150
160
170
180
190
200
210
220
230
240
250
260
270
280
290
300
310
320
330
340
350
360
370
380
390
400
410
420
430
440
450
460
470
480
490
500
510
520
530
540
550
560
570
580
590
600
610
620
630
640
650
660
670
680
690
700
710
720
730
740
750
760
770
780
790
800
810
820
830
840
850
860
870
880
890
900
910
920
930
940
950
960
970
980
990
1000
</DataArray>
<DataArray type="Float32" format="ascii">
0
</DataArray>
<DataArray type="Float32" format="ascii">
0
</DataArray>
</Coordinates>
<CellData>
<DataArray Name="h" type="Float32" format="ascii">
3.85288
3.86041
3.87552
3.89831
3.92886
3.96715
4.01302
4.06612
4.12586
4.19145
4.26192
4.33627
4.41348
4.49269
4.57314
4.65428
4.73571
4.81717
4.89849
4.97956
5.06034
5.14076
5.22081
5.30046
5.37969
5.45846
5.53677
5.61457
5.69186
5.76859
5.84475
5.92031
5.99522
6.06947
6.14301
6.21581
6.28783
6.35901
6.42932
6.4987
6.5671
6.63446
6.70072
6.76582
6.8297
6.8923
6.95357
7.01345
7.07192
7.12895
7.18455
7.23873
7.29152
7.34297
7.39311
7.44195
7.48946
7.53555
7.58004
7.62268
7.66317
7.70113
7.73621
7.76806
7.79646
7.82127
7.84248
7.86024
7.8748
7.88647
7.89563
7.90268
7.90801
7.91194
7.9148
7.91682
7.91821
7.91914
7.91972
7.92005
7.9202
7.92022
7.92015
7.92001
7.91985
7.91974
7.91999
7.92174
7.92928
7.95796
8.05838
8.37158
9.15423
10.4978
11.942
12.9474
13.4571
13.6694
13.7474
13.7717
</DataArray>
<DataArray Name="hu" type="Float32" format="ascii">
0.472552
1.41484
2.34885
3.26966
4.17324
5.05682
5.91918
6.76082
7.58397
8.39239
9.19085
9.98459
10.7787
11.5776
12.3847
13.2024
14.0322
14.8745
15.7295
16.5969
17.4762
18.3669
19.2682
20.1796
21.1004
22.0301
22.9681
23.9136
24.8661
25.825
26.7895
27.7589
28.7326
29.7097
30.6894
31.6708
32.653
33.635
34.6157
35.5939
36.5685
37.538
38.501
39.4559
40.401
41.3344
42.2541
43.1578
44.0431
44.9073
45.7475
46.5606
47.3434
48.0924
48.8044
49.4762
50.105
50.6887
51.2257
51.7153
52.158
52.5547
52.9074
53.2184
53.4907
53.7272
53.9308
54.1044
54.2508
54.3728
54.4728
54.5536
54.6176
54.6673
54.7049
54.7326
54.7523
54.7657
54.7742
54.7791
54.7813
54.7814
54.7801
54.7776
54.7743
54.77
54.7632
54.7483
54.7029
54.5458
53.9943
52.1395
46.7423
35.552
21.3536
10.2429
4.19654
1.56787
0.545048
0.131844
</DataArray>
<DataArray Name="B" type="Float32" format="ascii">
-2
-2
-2
-2
-2
-2
-2
-2
-2
-2
-2
-2
-2
-2
-2
-2
-2
-2
-2
-2
-2
-2
-2
-2
-2
-2
-2
-2
-2
-2
-2
-2
-2
-2
-2
-2
-2
-2
-2
-2
-2
-2
-2
-2
-2
-2
-2
-2
-2
-2
-2
-2
-2
-2
-2
-2
-2
-2
-2
-2
-2
-2
-2
-2
-2
-2
-2
-2
-2
-2
-2
-2
-2
-2
-2
-2
-2
-2
-2
-2
-2
-2
-2
-2
-2
-2
-2
-2
-2
-2
-2
-2
-2
-2
-2
-2
-2
-2
-2
-2
</DataArray>
</CellData>
</Piece>
</RectilinearGrid>
</VTKFile>
