<?xml version="1.0"?>
<VTKFile type="RectilinearGrid">
<RectilinearGrid WholeExtent="0 100 0 0 0 0">
<Piece Extent="0 100 0 0 0 0">
<Coordinates>
<DataArray type="Float32" format="ascii">
0
10
20
30
40
50
60
70
80
90
100
110
120
130
140
150
160
170
180
190
200
210
220
230
240
250
260
270
280
290
300
310
320
330
340
350
360
370
380
390
400
410
420
430
440
450
460
470
480
490
500
510
520
530
540
550
560
570
580
590
600
610
620
630
640
650
660
670
680
690
700
710
720
730
740
750
760
770
780
790
800
810
820
830
840
850
860
870
880
890
900
910
920
930
940
950
960
970
980
990
1000
</DataArray>
<DataArray type="Float32" format="ascii">
0
</DataArray>
<DataArray type="Float32" format="ascii">
0
</DataArray>
</Coordinates>
<CellData>
<DataArray Name="h" type="Float32" format="ascii">
5.58492
5.58483
5.58464
5.58436
5.58399
5.58352
5.58296
5.58231
5.58157
5.58074
5.57982
5.57881
5.57771
5.57653
5.57526
5.5739
5.57247
5.57095
5.56936
5.56768
5.56593
5.56411
5.56221
5.56024
5.5582
5.5561
5.55394
5.55171
5.54943
5.5471
5.54471
5.54229
5.53982
5.53732
5.53479
5.53224
5.52967
5.5271
5.52452
5.52194
5.51938
5.51684
5.51434
5.51188
5.50947
5.50713
5.50487
5.5027
5.50064
5.49871
5.49692
5.49529
5.49384
5.4926
5.49158
5.4908
5.49031
5.49014
5.49039
5.49128
5.49346
5.499
5.51444
5.56036
5.69742
6.06856
6.84778
7.93084
8.87559
9.43515
9.69708
9.80812
9.8547
9.8753
9.88552
9.89155
9.89582
9.8993
9.90239
9.90522
9.90786
9.91033
9.91266
9.91484
9.91689
9.91881
9.92061
9.92227
9.9238
9.92521
9.92647
9.9276
9.92861
9.92947
9.93022
9.93083
9.93132
9.93169
9.93193
9.93205
</DataArray>
<DataArray Name="hu" type="Float32" format="ascii">
0.184584
0.553741
0.922876
1.29197
1.66102
2.02999
2.39889
2.76768
3.13635
3.5049
3.8733
4.24154
4.6096
4.97747
5.34514
5.71258
6.07977
6.44672
6.8134
7.17978
7.54586
7.91162
8.27703
8.64208
9.00675
9.37101
9.73485
10.0982
10.4611
10.8235
11.1854
11.5466
11.9073
12.2673
12.6267
12.9853
13.3432
13.7002
14.0564
14.4117
14.7661
15.1195
15.4718
15.823
16.173
16.5218
16.8692
17.2153
17.5598
17.9029
18.2442
18.5838
18.9216
19.2574
19.5912
19.9227
20.2519
20.5785
20.902
21.221
21.5319
21.8225
22.0544
22.1046
21.5889
19.4489
13.8341
4.53229
-4.65003
-10.3871
-12.9223
-13.7064
-13.7201
-13.4212
-12.998
-12.5251
-12.0319
-11.53
-11.0242
-10.5164
-10.0075
-9.4979
-8.98766
-8.47686
-7.96554
-7.45371
-6.94141
-6.42869
-5.91562
-5.40227
-4.88866
-4.37483
-3.8608
-3.34658
-2.83215
-2.31752
-1.80271
-1.28776
-0.772703
-0.257575
</DataArray>
<DataArray Name="B" type="Float32" format="ascii">
-2
-2
-2
-2
-2
-2
-2
-2
-2
-2
-2
-2
-2
-2
-2
-2
-2
-2
-2
-2
-2
-2
-2
-2
-2
-2
-2
-2
-2
-2
-2
-2
-2
-2
-2
-2
-2
-2
-2
-2
-2
-2
-2
-2
-2
-2
-2
-2
-2
-2
-2
-2
-2
-2
-2
-2
-2
-2
-2
-2
-2
-2
-2
-2
-2
-2
-2
-2
-2
-2
-2
-2
-2
-2
-2
-2
-2
-2
-2
-2
-2
-2
-2
-2
-2
-2
-2
-2
-2
-2
-2
-2
-2
-2
-2
-2
-2
-2
-2
-2
</DataArray>
</CellData>
</Piece>
</RectilinearGrid>
</VTKFile>
