<?xml version="1.0"?>
<VTKFile type="RectilinearGrid">
<RectilinearGrid WholeExtent="0 100 0 0 0 0">
<Piece Extent="0 100 0 0 0 0">
<Coordinates>
<DataArray type="Float32" format="ascii">
0
10
20
30
40
50
60
70
80
90
100
110
120
130
140
150
160
170
180
190
200
210
220
230
240
250
260
270
280
290
300
310
320
330
340
350
360
370
380
390
400
410
420
430
440
450
460
470
480
490
500
510
520
530
540
550
560
570
580
590
600
610
620
630
640
650
660
670
680
690
700
710
720
730
740
750
760
770
780
790
800
810
820
830
840
850
860
870
880
890
900
910
920
930
940
950
960
970
980
990
1000
</DataArray>
<DataArray type="Float32" format="ascii">
0
</DataArray>
<DataArray type="Float32" format="ascii">
0
</DataArray>
</Coordinates>
<CellData>
<DataArray Name="h" type="Float32" format="ascii">
12.0838
12.0541
11.9952
11.9076
11.7928
11.6521
11.4877
11.3019
11.0974
10.877
10.6437
10.4003
10.1498
9.89482
9.6383
9.38317
9.13268
8.89056
8.66117
8.44951
8.26101
8.10092
7.97329
7.87966
7.81806
7.78304
7.76702
7.76237
7.76314
7.76574
7.76846
7.77078
7.77262
7.77407
7.7752
7.77608
7.77675
7.77725
7.7776
7.77782
7.77793
7.77795
7.77788
7.77774
7.77753
7.77726
7.77692
7.77653
7.77607
7.77556
7.77499
7.77436
7.77367
7.7729
7.77204
7.77109
7.77
7.76871
7.76701
7.76445
7.75981
7.75004
7.7274
7.67265
7.53967
7.22801
6.57205
5.4946
4.3967
3.78772
3.57763
3.52067
3.50717
3.50524
3.50687
3.51026
3.51514
3.5215
3.52927
3.5382
3.54784
3.5576
3.56684
3.575
3.5817
3.58682
3.59044
3.5928
3.59421
3.59499
3.59537
3.59554
3.59561
3.59564
3.59565
3.59565
3.59565
3.59565
3.59565
3.59565
</DataArray>
<DataArray Name="hu" type="Float32" format="ascii">
1.89142
5.65504
9.36215
12.9789
16.4767
19.8338
23.0361
26.077
28.9565
31.6801
34.2563
36.6944
39.0032
41.1887
43.2534
45.1959
47.0105
48.6871
50.2122
51.5691
52.7401
53.7092
54.4669
55.0153
55.373
55.5749
55.6655
55.6893
55.6806
55.6606
55.6394
55.6202
55.6035
55.5888
55.5756
55.5636
55.5526
55.5422
55.5323
55.5227
55.5134
55.5043
55.4951
55.4859
55.4766
55.467
55.4571
55.4469
55.4362
55.425
55.4132
55.4006
55.3873
55.3729
55.3573
55.3402
55.321
55.2981
55.2681
55.2224
55.1387
54.9609
54.5478
53.5521
51.1674
45.7802
35.3447
20.7314
8.58226
2.98434
1.2798
0.834991
0.718136
0.679285
0.654559
0.626813
0.590694
0.544358
0.487804
0.422683
0.352194
0.280671
0.212812
0.152751
0.103283
0.0654655
0.0387054
0.0212372
0.010762
0.00502018
0.00215771
0.000866748
0.000344045
0.000152674
8.49712e-05
5.60754e-05
3.62951e-05
2.247e-05
1.35338e-05
4.71539e-06
</DataArray>
<DataArray Name="B" type="Float32" format="ascii">
-2
-2
-2
-2
-2
-2
-2
-2
-2
-2
-2
-2
-2
-2
-2
-2
-2
-2
-2
-2
-2
-2
-2
-2
-2
-2
-2
-2
-2
-2
-2
-2
-2
-2
-2
-2
-2
-2
-2
-2
-2
-2
-2
-2
-2
-2
-2
-2
-2
-2
-2
-2
-2
-2
-2
-2
-2
-2
-2
-2
-2
-2
-2
-2
-2
-2
-2
-2
-2
-2
-2
-2
-2
-2
-2
-2
-2
-2
-2
-2
-2
-2
-2
-2
-2
-2
-2
-2
-2
-2
-2
-2
-2
-2
-2
-2
-2
-2
-2
-2
</DataArray>
</CellData>
</Piece>
</RectilinearGrid>
</VTKFile>
