<?xml version="1.0"?>
<VTKFile type="RectilinearGrid">
<RectilinearGrid WholeExtent="0 100 0 0 0 0">
<Piece Extent="0 100 0 0 0 0">
<Coordinates>
<DataArray type="Float32" format="ascii">
0
10
20
30
40
50
60
70
80
90
100
110
120
130
140
150
160
170
180
190
200
210
220
230
240
250
260
270
280
290
300
310
320
330
340
350
360
370
380
390
400
410
420
430
440
450
460
470
480
490
500
510
520
530
540
550
560
570
580
590
600
610
620
630
640
650
660
670
680
690
700
710
720
730
740
750
760
770
780
790
800
810
820
830
840
850
860
870
880
890
900
910
920
930
940
950
960
970
980
990
1000
</DataArray>
<DataArray type="Float32" format="ascii">
0
</DataArray>
<DataArray type="Float32" format="ascii">
0
</DataArray>
</Coordinates>
<CellData>
<DataArray Name="h" type="Float32" format="ascii">
3.14087
3.14338
3.14847
3.15631
3.1671
3.18104
3.1983
3.21902
3.24326
3.27098
3.30211
3.33649
3.37393
3.41418
3.45702
3.50219
3.54943
3.59853
3.64925
3.70139
3.75478
3.80924
3.86463
3.92082
3.97769
4.03515
4.09311
4.15149
4.21023
4.26927
4.32857
4.3881
4.44784
4.50778
4.56793
4.62829
4.68891
4.74982
4.81109
4.87276
4.93492
4.99762
5.06093
5.12486
5.18944
5.25462
5.32032
5.38643
5.45278
5.51918
5.58541
5.65127
5.71656
5.7811
5.84476
5.90748
5.9692
6.02995
6.08974
6.14865
6.20675
6.26412
6.32082
6.37692
6.43248
6.48757
6.54235
6.59724
6.65365
6.71604
6.79869
6.94531
7.27371
8.00335
9.24762
10.6573
11.7314
12.3566
12.6847
12.8646
12.9783
13.0632
13.1351
13.2003
13.2613
13.319
13.3735
13.4249
13.4731
13.5179
13.5591
13.5966
13.6303
13.66
13.6856
13.707
13.7243
13.7372
13.7459
13.7502
</DataArray>
<DataArray Name="hu" type="Float32" format="ascii">
0.0170067
0.0536292
0.0979693
0.154817
0.228456
0.322517
0.439885
0.582654
0.752146
0.948978
1.17316
1.42422
1.70131
2.00333
2.32903
2.67709
3.04616
3.43494
3.84218
4.2667
4.70742
5.16334
5.63356
6.11727
6.61371
7.12221
7.64215
8.17296
8.71413
9.26516
9.82558
10.3949
10.9727
11.5585
12.1518
12.752
13.3586
13.9709
14.5882
15.21
15.8354
16.4639
17.0948
17.7279
18.3628
18.9996
19.6386
20.2803
20.9254
21.5751
22.2302
22.892
23.5612
24.2387
24.9248
25.6198
26.3236
27.0355
27.7551
28.4816
29.214
29.9515
30.6931
31.4379
32.1852
32.9339
33.6826
34.4282
35.1623
35.8593
36.4378
36.639
35.6794
31.6627
22.4653
9.95375
-0.455105
-6.31458
-8.73151
-9.34451
-9.1553
-8.6392
-8.00177
-7.32932
-6.65821
-6.00435
-5.37541
-4.77567
-4.20796
-3.67433
-3.17619
-2.71424
-2.28845
-1.89793
-1.54084
-1.21434
-0.914595
-0.636809
-0.375362
-0.123985
</DataArray>
<DataArray Name="B" type="Float32" format="ascii">
-2
-2
-2
-2
-2
-2
-2
-2
-2
-2
-2
-2
-2
-2
-2
-2
-2
-2
-2
-2
-2
-2
-2
-2
-2
-2
-2
-2
-2
-2
-2
-2
-2
-2
-2
-2
-2
-2
-2
-2
-2
-2
-2
-2
-2
-2
-2
-2
-2
-2
-2
-2
-2
-2
-2
-2
-2
-2
-2
-2
-2
-2
-2
-2
-2
-2
-2
-2
-2
-2
-2
-2
-2
-2
-2
-2
-2
-2
-2
-2
-2
-2
-2
-2
-2
-2
-2
-2
-2
-2
-2
-2
-2
-2
-2
-2
-2
-2
-2
-2
</DataArray>
</CellData>
</Piece>
</RectilinearGrid>
</VTKFile>
