<?xml version="1.0"?>
<VTKFile type="RectilinearGrid">
<RectilinearGrid WholeExtent="0 100 0 0 0 0">
<Piece Extent="0 100 0 0 0 0">
<Coordinates>
<DataArray type="Float32" format="ascii">
0
10
20
30
40
50
60
70
80
90
100
110
120
130
140
150
160
170
180
190
200
210
220
230
240
250
260
270
280
290
300
310
320
330
340
350
360
370
380
390
400
410
420
430
440
450
460
470
480
490
500
510
520
530
540
550
560
570
580
590
600
610
620
630
640
650
660
670
680
690
700
710
720
730
740
750
760
770
780
790
800
810
820
830
840
850
860
870
880
890
900
910
920
930
940
950
960
970
980
990
1000
</DataArray>
<DataArray type="Float32" format="ascii">
0
</DataArray>
<DataArray type="Float32" format="ascii">
0
</DataArray>
</Coordinates>
<CellData>
<DataArray Name="h" type="Float32" format="ascii">
10.91
10.8906
10.8516
10.7933
10.7158
10.6194
10.5046
10.3721
10.223
10.0585
9.8804
9.69078
9.49217
9.28753
9.08027
8.87429
8.67396
8.4841
8.30984
8.15623
8.02761
7.92679
7.85412
7.80709
7.78073
7.76886
7.7656
7.76648
7.7688
7.77123
7.77333
7.77502
7.77637
7.77743
7.77827
7.77892
7.77941
7.77978
7.78003
7.78018
7.78026
7.78026
7.7802
7.78008
7.77991
7.77969
7.77943
7.77913
7.77879
7.7784
7.77798
7.77752
7.77701
7.77646
7.77586
7.77522
7.77451
7.77375
7.77291
7.77198
7.77092
7.76962
7.76786
7.76502
7.75958
7.74765
7.71942
7.65063
7.48394
7.09989
6.32787
5.18208
4.18804
3.71598
3.57023
3.53675
3.53447
3.5407
3.54934
3.55845
3.56715
3.57488
3.5813
3.58629
3.58991
3.59236
3.59389
3.59478
3.59525
3.59548
3.59559
3.59563
3.59565
3.59565
3.59565
3.59565
3.59566
3.59566
3.59566
3.59566
</DataArray>
<DataArray Name="hu" type="Float32" format="ascii">
2.00085
5.9882
9.93267
13.8065
17.583
21.2377
24.7481
28.0952
31.2636
34.242
37.0232
39.6042
41.9851
44.1686
46.1581
47.9569
49.5666
50.9863
52.2131
53.243
54.0733
54.7067
55.1555
55.4433
55.6042
55.6765
55.6958
55.6889
55.6724
55.6544
55.6378
55.6233
55.6104
55.599
55.5886
55.5792
55.5704
55.5621
55.5542
55.5466
55.5392
55.5319
55.5246
55.5173
55.51
55.5025
55.4949
55.487
55.4788
55.4704
55.4616
55.4523
55.4426
55.4323
55.4214
55.4098
55.3974
55.3841
55.3696
55.3535
55.3351
55.3126
55.2815
55.2305
55.1313
54.9119
54.3926
53.1364
50.1529
43.5963
31.6928
16.9102
6.43209
2.21088
0.979314
0.629002
0.497941
0.416186
0.344123
0.27513
0.210683
0.153658
0.106265
0.069399
0.0426289
0.0245275
0.0131698
0.00658239
0.00306277
0.00133597
0.000560917
0.000244116
0.000123904
7.71082e-05
5.34583e-05
3.92633e-05
3.06816e-05
2.17979e-05
1.27445e-05
4.27699e-06
</DataArray>
<DataArray Name="B" type="Float32" format="ascii">
-2
-2
-2
-2
-2
-2
-2
-2
-2
-2
-2
-2
-2
-2
-2
-2
-2
-2
-2
-2
-2
-2
-2
-2
-2
-2
-2
-2
-2
-2
-2
-2
-2
-2
-2
-2
-2
-2
-2
-2
-2
-2
-2
-2
-2
-2
-2
-2
-2
-2
-2
-2
-2
-2
-2
-2
-2
-2
-2
-2
-2
-2
-2
-2
-2
-2
-2
-2
-2
-2
-2
-2
-2
-2
-2
-2
-2
-2
-2
-2
-2
-2
-2
-2
-2
-2
-2
-2
-2
-2
-2
-2
-2
-2
-2
-2
-2
-2
-2
-2
</DataArray>
</CellData>
</Piece>
</RectilinearGrid>
</VTKFile>
