<?xml version="1.0"?>
<VTKFile type="RectilinearGrid">
<RectilinearGrid WholeExtent="0 100 0 0 0 0">
<Piece Extent="0 100 0 0 0 0">
<Coordinates>
<DataArray type="Float32" format="ascii">
0
10
20
30
40
50
60
70
80
90
100
110
120
130
140
150
160
170
180
190
200
210
220
230
240
250
260
270
280
290
300
310
320
330
340
350
360
370
380
390
400
410
420
430
440
450
460
470
480
490
500
510
520
530
540
550
560
570
580
590
600
610
620
630
640
650
660
670
680
690
700
710
720
730
740
750
760
770
780
790
800
810
820
830
840
850
860
870
880
890
900
910
920
930
940
950
960
970
980
990
1000
</DataArray>
<DataArray type="Float32" format="ascii">
0
</DataArray>
<DataArray type="Float32" format="ascii">
0
</DataArray>
</Coordinates>
<CellData>
<DataArray Name="h" type="Float32" format="ascii">
14
14
14
14
14
14
14
14
14
14
14
14
14
14
14
13.9999
13.9995
13.9982
13.9937
13.981
13.9493
13.8803
13.7484
13.5255
13.1885
12.7249
12.1352
11.4313
10.6362
9.78745
8.95054
8.23841
7.79425
7.65992
7.6723
7.67687
7.65906
7.58334
7.35594
6.79811
5.75618
4.54839
3.82277
3.57611
3.51557
3.50289
3.50049
3.50007
3.50001
3.5
3.5
3.5
3.5
3.5
3.5
3.5
3.5
3.5
3.5
3.5
3.5
3.5
3.5
3.5
3.5
3.5
3.5
3.5
3.5
3.5
3.5
3.5
3.5
3.5
3.5
3.5
3.5
3.5
3.5
3.5
3.5
3.5
3.5
3.5
3.5
3.5
3.5
3.50001
3.50004
3.50016
3.50058
3.50182
3.50496
3.51168
3.52366
3.54112
3.56126
3.57899
3.59017
3.59469
</DataArray>
<DataArray Name="hu" type="Float32" format="ascii">
0
0
2.72701e-26
2.18745e-23
4.05736e-21
4.97123e-19
6.9889e-17
6.20412e-15
3.86846e-13
4.00225e-11
2.61455e-09
1.17097e-07
4.2412e-06
4.14213e-05
0.000253165
0.00129468
0.00579747
0.0227448
0.0783239
0.237194
0.632534
1.48878
3.10607
5.78496
9.71444
14.8857
21.0794
27.9179
34.9366
41.6358
47.4999
51.9964
54.6267
55.3571
55.1415
54.8445
54.2521
52.6663
48.4692
39.1216
24.1875
10.1818
3.30056
1.28053
0.816872
0.721583
0.703639
0.700556
0.700077
0.70001
0.700001
0.7
0.7
0.7
0.7
0.7
0.7
0.7
0.7
0.7
0.7
0.7
0.7
0.7
0.7
0.7
0.7
0.7
0.7
0.7
0.7
0.7
0.7
0.7
0.7
0.7
0.7
0.7
0.7
0.7
0.7
0.7
0.7
0.7
0.7
0.699998
0.699988
0.699938
0.699713
0.698825
0.695788
0.686827
0.664151
0.615513
0.528457
0.401158
0.253467
0.122916
0.0402341
0.0066334
</DataArray>
<DataArray Name="B" type="Float32" format="ascii">
-2
-2
-2
-2
-2
-2
-2
-2
-2
-2
-2
-2
-2
-2
-2
-2
-2
-2
-2
-2
-2
-2
-2
-2
-2
-2
-2
-2
-2
-2
-2
-2
-2
-2
-2
-2
-2
-2
-2
-2
-2
-2
-2
-2
-2
-2
-2
-2
-2
-2
-2
-2
-2
-2
-2
-2
-2
-2
-2
-2
-2
-2
-2
-2
-2
-2
-2
-2
-2
-2
-2
-2
-2
-2
-2
-2
-2
-2
-2
-2
-2
-2
-2
-2
-2
-2
-2
-2
-2
-2
-2
-2
-2
-2
-2
-2
-2
-2
-2
-2
</DataArray>
</CellData>
</Piece>
</RectilinearGrid>
</VTKFile>
