<?xml version="1.0"?>
<VTKFile type="RectilinearGrid">
<RectilinearGrid WholeExtent="0 100 0 0 0 0">
<Piece Extent="0 100 0 0 0 0">
<Coordinates>
<DataArray type="Float32" format="ascii">
0
10
20
30
40
50
60
70
80
90
100
110
120
130
140
150
160
170
180
190
200
210
220
230
240
250
260
270
280
290
300
310
320
330
340
350
360
370
380
390
400
410
420
430
440
450
460
470
480
490
500
510
520
530
540
550
560
570
580
590
600
610
620
630
640
650
660
670
680
690
700
710
720
730
740
750
760
770
780
790
800
810
820
830
840
850
860
870
880
890
900
910
920
930
940
950
960
970
980
990
1000
</DataArray>
<DataArray type="Float32" format="ascii">
0
</DataArray>
<DataArray type="Float32" format="ascii">
0
</DataArray>
</Coordinates>
<CellData>
<DataArray Name="h" type="Float32" format="ascii">
7.59618
7.59034
7.57873
7.56153
7.53899
7.5115
7.4796
7.444
7.40564
7.36571
7.32569
7.28737
7.25287
7.2245
7.20469
7.19563
7.199
7.21548
7.24451
7.28423
7.3317
7.38352
7.43639
7.48764
7.53539
7.5786
7.61681
7.64996
7.67823
7.70193
7.72147
7.73728
7.74983
7.7596
7.76704
7.77258
7.77662
7.77949
7.78148
7.78281
7.78367
7.7842
7.78449
7.78461
7.78463
7.78457
7.78446
7.78431
7.78413
7.78393
7.78371
7.78347
7.78322
7.78295
7.78267
7.78238
7.78209
7.78179
7.78152
7.7813
7.78117
7.78121
7.78153
7.78229
7.78368
7.78595
7.78939
7.79424
7.8007
7.80884
7.81854
7.82945
7.84101
7.85248
7.86284
7.87074
7.87373
7.86658
7.83659
7.75272
7.54312
7.06741
6.16601
4.98335
4.11055
3.74339
3.63367
3.6051
3.59798
3.59623
3.5958
3.59569
3.59567
3.59566
3.59566
3.59566
3.59566
3.59566
3.59566
3.59566
</DataArray>
<DataArray Name="hu" type="Float32" format="ascii">
1.49208
4.47251
7.44175
10.3921
13.3157
16.2041
19.0485
21.8395
24.5669
27.2197
29.7858
32.2527
34.6067
36.8343
38.9223
40.8594
42.6371
44.2522
45.7071
47.0106
48.1761
49.2193
50.1548
50.9946
51.7467
52.416
53.0056
53.518
53.9563
54.3248
54.6286
54.8741
55.0683
55.2185
55.3319
55.4153
55.4749
55.5162
55.5438
55.5613
55.5717
55.5771
55.579
55.5788
55.577
55.5744
55.5711
55.5674
55.5634
55.5593
55.555
55.5505
55.5458
55.541
55.536
55.5308
55.5253
55.5195
55.5132
55.5064
55.4986
55.4895
55.4785
55.4645
55.4466
55.4231
55.3925
55.3533
55.304
55.2442
55.1742
55.095
55.0088
54.9168
54.8176
54.7005
54.5325
54.224
53.5476
51.9538
48.2371
40.365
27.1827
12.8857
4.23572
1.1339
0.284754
0.0703995
0.0173589
0.00430837
0.00110285
0.000314693
0.000120013
6.95723e-05
5.25928e-05
4.16233e-05
3.21643e-05
2.32988e-05
1.40638e-05
4.74273e-06
</DataArray>
<DataArray Name="B" type="Float32" format="ascii">
-2
-2
-2
-2
-2
-2
-2
-2
-2
-2
-2
-2
-2
-2
-2
-2
-2
-2
-2
-2
-2
-2
-2
-2
-2
-2
-2
-2
-2
-2
-2
-2
-2
-2
-2
-2
-2
-2
-2
-2
-2
-2
-2
-2
-2
-2
-2
-2
-2
-2
-2
-2
-2
-2
-2
-2
-2
-2
-2
-2
-2
-2
-2
-2
-2
-2
-2
-2
-2
-2
-2
-2
-2
-2
-2
-2
-2
-2
-2
-2
-2
-2
-2
-2
-2
-2
-2
-2
-2
-2
-2
-2
-2
-2
-2
-2
-2
-2
-2
-2
</DataArray>
</CellData>
</Piece>
</RectilinearGrid>
</VTKFile>
