<?xml version="1.0"?>
<VTKFile type="RectilinearGrid">
<RectilinearGrid WholeExtent="0 100 0 0 0 0">
<Piece Extent="0 100 0 0 0 0">
<Coordinates>
<DataArray type="Float32" format="ascii">
0
10
20
30
40
50
60
70
80
90
100
110
120
130
140
150
160
170
180
190
200
210
220
230
240
250
260
270
280
290
300
310
320
330
340
350
360
370
380
390
400
410
420
430
440
450
460
470
480
490
500
510
520
530
540
550
560
570
580
590
600
610
620
630
640
650
660
670
680
690
700
710
720
730
740
750
760
770
780
790
800
810
820
830
840
850
860
870
880
890
900
910
920
930
940
950
960
970
980
990
1000
</DataArray>
<DataArray type="Float32" format="ascii">
0
</DataArray>
<DataArray type="Float32" format="ascii">
0
</DataArray>
</Coordinates>
<CellData>
<DataArray Name="h" type="Float32" format="ascii">
4.90884
4.91081
4.91496
4.92169
4.9316
4.94545
4.96418
4.98875
5.02017
5.0593
5.10674
5.16272
5.22696
5.29871
5.37679
5.45976
5.54612
5.6345
5.72375
5.81306
5.90187
5.98982
6.07673
6.16248
6.24699
6.33021
6.41208
6.49252
6.57147
6.64885
6.72457
6.79853
6.87061
6.94071
7.00869
7.07444
7.1378
7.19864
7.25681
7.31217
7.36458
7.41389
7.46
7.5028
7.5422
7.57815
7.61065
7.63971
7.66541
7.68787
7.70726
7.72381
7.73779
7.7495
7.75932
7.76764
7.77488
7.78148
7.78786
7.79442
7.80152
7.80941
7.81824
7.82799
7.83851
7.84952
7.86061
7.87136
7.88134
7.8902
7.89773
7.90381
7.90849
7.9119
7.91423
7.9157
7.91653
7.91691
7.91698
7.91685
7.91659
7.91625
7.91585
7.91541
7.91494
7.91441
7.91383
7.91314
7.91222
7.91078
7.90807
7.90219
7.88832
7.8544
7.77085
7.56931
7.11513
6.24895
5.09931
4.31217
</DataArray>
<DataArray Name="hu" type="Float32" format="ascii">
0.821012
2.45989
4.08932
5.70291
7.29425
8.85691
10.3846
11.8716
13.3128
14.7044
16.0447
17.3343
18.5763
19.7766
20.9432
22.0848
23.2104
24.3276
25.4423
26.5583
27.6777
28.8011
29.928
31.0574
32.188
33.318
34.4457
35.5693
36.6866
37.7956
38.8939
39.9792
41.0488
42.1001
43.1301
44.1357
45.1139
46.0613
46.9746
47.8504
48.6855
49.4766
50.2207
50.9152
51.5578
52.1468
52.6812
53.1605
53.5852
53.9567
54.2769
54.5486
54.7752
54.9605
55.1084
55.223
55.3081
55.3671
55.403
55.4183
55.4154
55.3962
55.3627
55.3174
55.2626
55.2015
55.1371
55.0728
55.0114
54.9553
54.9063
54.865
54.8315
54.805
54.7845
54.7687
54.7564
54.7464
54.7379
54.7302
54.7229
54.7156
54.7081
54.7002
54.692
54.683
54.6731
54.6613
54.6454
54.6202
54.572
54.4664
54.2163
53.605
52.11
48.5785
41.0135
28.0579
13.3647
3.34894
</DataArray>
<DataArray Name="B" type="Float32" format="ascii">
-2
-2
-2
-2
-2
-2
-2
-2
-2
-2
-2
-2
-2
-2
-2
-2
-2
-2
-2
-2
-2
-2
-2
-2
-2
-2
-2
-2
-2
-2
-2
-2
-2
-2
-2
-2
-2
-2
-2
-2
-2
-2
-2
-2
-2
-2
-2
-2
-2
-2
-2
-2
-2
-2
-2
-2
-2
-2
-2
-2
-2
-2
-2
-2
-2
-2
-2
-2
-2
-2
-2
-2
-2
-2
-2
-2
-2
-2
-2
-2
-2
-2
-2
-2
-2
-2
-2
-2
-2
-2
-2
-2
-2
-2
-2
-2
-2
-2
-2
-2
</DataArray>
</CellData>
</Piece>
</RectilinearGrid>
</VTKFile>
