<?xml version="1.0"?>
<VTKFile type="RectilinearGrid">
<RectilinearGrid WholeExtent="0 100 0 0 0 0">
<Piece Extent="0 100 0 0 0 0">
<Coordinates>
<DataArray type="Float32" format="ascii">
0
10
20
30
40
50
60
70
80
90
100
110
120
130
140
150
160
170
180
190
200
210
220
230
240
250
260
270
280
290
300
310
320
330
340
350
360
370
380
390
400
410
420
430
440
450
460
470
480
490
500
510
520
530
540
550
560
570
580
590
600
610
620
630
640
650
660
670
680
690
700
710
720
730
740
750
760
770
780
790
800
810
820
830
840
850
860
870
880
890
900
910
920
930
940
950
960
970
980
990
1000
</DataArray>
<DataArray type="Float32" format="ascii">
0
</DataArray>
<DataArray type="Float32" format="ascii">
0
</DataArray>
</Coordinates>
<CellData>
<DataArray Name="h" type="Float32" format="ascii">
6.00311
6.003
6.00278
6.00246
6.00202
6.00148
6.00083
6.00008
5.99921
5.99825
5.99717
5.99599
5.99471
5.99333
5.99184
5.99025
5.98856
5.98677
5.98488
5.9829
5.98082
5.97865
5.97638
5.97402
5.97157
5.96904
5.96642
5.96371
5.96092
5.95805
5.9551
5.95208
5.94899
5.94582
5.9426
5.9393
5.93595
5.93255
5.9291
5.92561
5.92207
5.91851
5.91493
5.91133
5.90772
5.90411
5.90051
5.89693
5.89338
5.88986
5.8864
5.883
5.87968
5.87645
5.87334
5.87035
5.86751
5.86483
5.86234
5.86006
5.85802
5.85623
5.85473
5.85355
5.85271
5.85224
5.85219
5.85261
5.85359
5.85539
5.85875
5.86598
5.88456
5.93794
6.09447
6.5102
7.35812
8.4972
9.46434
10.0303
10.2951
10.4074
10.4542
10.4743
10.4838
10.489
10.4925
10.4951
10.4974
10.4993
10.5011
10.5026
10.504
10.5052
10.5062
10.507
10.5077
10.5082
10.5085
10.5087
</DataArray>
<DataArray Name="hu" type="Float32" format="ascii">
0.201093
0.603276
1.00544
1.40758
1.80967
2.21172
2.6137
3.0156
3.41741
3.81912
4.22072
4.62219
5.02351
5.42467
5.82565
6.22644
6.62702
7.02738
7.4275
7.82736
8.22695
8.62624
9.02521
9.42385
9.82214
10.2201
10.6176
11.0147
11.4114
11.8077
12.2034
12.5987
12.9935
13.3877
13.7814
14.1745
14.567
14.9588
15.3499
15.7403
16.1299
16.5187
16.9067
17.2937
17.6798
18.0649
18.449
18.8319
19.2137
19.5942
19.9735
20.3514
20.7278
21.1027
21.476
21.8475
22.2173
22.5851
22.951
23.3147
23.6761
24.0352
24.3917
24.7456
25.0967
25.4449
25.7899
26.1315
26.4692
26.8016
27.1246
27.4251
27.6611
27.6978
27.1137
24.7614
18.7296
9.04191
-0.249305
-5.9523
-8.44762
-9.1993
-9.17996
-8.84581
-8.38642
-7.87741
-7.34854
-6.81145
-6.27072
-5.72818
-5.18455
-4.6402
-4.09531
-3.55001
-3.00439
-2.45851
-1.9124
-1.36613
-0.819721
-0.273247
</DataArray>
<DataArray Name="B" type="Float32" format="ascii">
-2
-2
-2
-2
-2
-2
-2
-2
-2
-2
-2
-2
-2
-2
-2
-2
-2
-2
-2
-2
-2
-2
-2
-2
-2
-2
-2
-2
-2
-2
-2
-2
-2
-2
-2
-2
-2
-2
-2
-2
-2
-2
-2
-2
-2
-2
-2
-2
-2
-2
-2
-2
-2
-2
-2
-2
-2
-2
-2
-2
-2
-2
-2
-2
-2
-2
-2
-2
-2
-2
-2
-2
-2
-2
-2
-2
-2
-2
-2
-2
-2
-2
-2
-2
-2
-2
-2
-2
-2
-2
-2
-2
-2
-2
-2
-2
-2
-2
-2
-2
</DataArray>
</CellData>
</Piece>
</RectilinearGrid>
</VTKFile>
