<?xml version="1.0"?>
<VTKFile type="RectilinearGrid">
<RectilinearGrid WholeExtent="0 100 0 0 0 0">
<Piece Extent="0 100 0 0 0 0">
<Coordinates>
<DataArray type="Float32" format="ascii">
0
10
20
30
40
50
60
70
80
90
100
110
120
130
140
150
160
170
180
190
200
210
220
230
240
250
260
270
280
290
300
310
320
330
340
350
360
370
380
390
400
410
420
430
440
450
460
470
480
490
500
510
520
530
540
550
560
570
580
590
600
610
620
630
640
650
660
670
680
690
700
710
720
730
740
750
760
770
780
790
800
810
820
830
840
850
860
870
880
890
900
910
920
930
940
950
960
970
980
990
1000
</DataArray>
<DataArray type="Float32" format="ascii">
0
</DataArray>
<DataArray type="Float32" format="ascii">
0
</DataArray>
</Coordinates>
<CellData>
<DataArray Name="h" type="Float32" format="ascii">
5.87692
5.87681
5.8766
5.87629
5.87587
5.87535
5.87472
5.874
5.87317
5.87223
5.8712
5.87007
5.86884
5.86751
5.86608
5.86456
5.86294
5.86122
5.85942
5.85752
5.85554
5.85346
5.8513
5.84905
5.84672
5.84431
5.84182
5.83925
5.8366
5.83388
5.83109
5.82823
5.82531
5.82233
5.81929
5.8162
5.81306
5.80988
5.80667
5.80342
5.80016
5.79687
5.79358
5.79029
5.78701
5.78374
5.7805
5.7773
5.77415
5.77106
5.76804
5.76512
5.7623
5.75961
5.75705
5.75466
5.75244
5.75043
5.74864
5.7471
5.74584
5.74487
5.74425
5.74399
5.74414
5.74481
5.7462
5.74897
5.75515
5.77122
5.8176
5.95459
6.32575
7.11269
8.22533
9.21633
9.81537
10.1001
10.2216
10.2724
10.2944
10.3049
10.3107
10.3145
10.3175
10.32
10.3222
10.3243
10.3261
10.3278
10.3294
10.3308
10.332
10.3331
10.334
10.3348
10.3354
10.3358
10.3361
10.3363
</DataArray>
<DataArray Name="hu" type="Float32" format="ascii">
0.196092
0.588271
0.980433
1.37256
1.76464
2.15667
2.54862
2.9405
3.33227
3.72393
4.11547
4.50687
4.89812
5.2892
5.68009
6.07079
6.46127
6.85152
7.24152
7.63125
8.0207
8.40984
8.79867
9.18716
9.5753
9.96305
10.3504
10.7373
11.1239
11.5099
11.8955
12.2805
12.665
13.049
13.4324
13.8151
14.1972
14.5786
14.9593
15.3392
15.7183
16.0965
16.4738
16.8502
17.2255
17.5998
17.973
18.345
18.7158
19.0852
19.4533
19.8199
20.185
20.5484
20.91
21.2699
21.6278
21.9837
22.3373
22.6887
23.0377
23.3842
23.7279
24.0688
24.4066
24.7407
25.07
25.3908
25.6916
25.9354
26.004
25.526
23.4662
17.9499
8.5947
-0.876011
-6.93697
-9.67544
-10.548
-10.5856
-10.2811
-9.84
-9.3447
-8.82766
-8.30159
-7.77151
-7.2394
-6.70607
-6.17188
-5.63701
-5.10159
-4.56568
-4.02935
-3.49268
-2.95573
-2.41857
-1.88125
-1.34382
-0.806312
-0.268774
</DataArray>
<DataArray Name="B" type="Float32" format="ascii">
-2
-2
-2
-2
-2
-2
-2
-2
-2
-2
-2
-2
-2
-2
-2
-2
-2
-2
-2
-2
-2
-2
-2
-2
-2
-2
-2
-2
-2
-2
-2
-2
-2
-2
-2
-2
-2
-2
-2
-2
-2
-2
-2
-2
-2
-2
-2
-2
-2
-2
-2
-2
-2
-2
-2
-2
-2
-2
-2
-2
-2
-2
-2
-2
-2
-2
-2
-2
-2
-2
-2
-2
-2
-2
-2
-2
-2
-2
-2
-2
-2
-2
-2
-2
-2
-2
-2
-2
-2
-2
-2
-2
-2
-2
-2
-2
-2
-2
-2
-2
</DataArray>
</CellData>
</Piece>
</RectilinearGrid>
</VTKFile>
