<?xml version="1.0"?>
<VTKFile type="RectilinearGrid">
<RectilinearGrid WholeExtent="0 100 0 0 0 0">
<Piece Extent="0 100 0 0 0 0">
<Coordinates>
<DataArray type="Float32" format="ascii">
0
10
20
30
40
50
60
70
80
90
100
110
120
130
140
150
160
170
180
190
200
210
220
230
240
250
260
270
280
290
300
310
320
330
340
350
360
370
380
390
400
410
420
430
440
450
460
470
480
490
500
510
520
530
540
550
560
570
580
590
600
610
620
630
640
650
660
670
680
690
700
710
720
730
740
750
760
770
780
790
800
810
820
830
840
850
860
870
880
890
900
910
920
930
940
950
960
970
980
990
1000
</DataArray>
<DataArray type="Float32" format="ascii">
0
</DataArray>
<DataArray type="Float32" format="ascii">
0
</DataArray>
</Coordinates>
<CellData>
<DataArray Name="h" type="Float32" format="ascii">
10.0372
10.037
10.0364
10.0356
10.0345
10.0331
10.0314
10.0294
10.0272
10.0247
10.0219
10.0188
10.0154
10.0117
10.0077
10.0034
9.99883
9.99393
9.98873
9.98321
9.97737
9.9712
9.96471
9.95788
9.9507
9.94317
9.93529
9.92704
9.91843
9.90945
9.90008
9.89032
9.88014
9.86952
9.85846
9.84693
9.83488
9.82221
9.80865
9.79358
9.77548
9.75053
9.70918
9.62745
9.44719
9.04266
8.22408
6.97159
5.7905
5.13529
4.8766
4.77911
4.73277
4.70143
4.67442
4.64868
4.62334
4.59815
4.57306
4.54807
4.52322
4.49852
4.47404
4.44983
4.42594
4.40244
4.3794
4.3569
4.335
4.31377
4.29329
4.27362
4.25481
4.23691
4.21995
4.20396
4.18895
4.17493
4.16188
4.1498
4.13866
4.12842
4.11906
4.11053
4.10279
4.0958
4.0895
4.08387
4.07885
4.0744
4.07048
4.06706
4.06411
4.06159
4.05948
4.05776
4.0564
4.0554
4.05473
4.0544
</DataArray>
<DataArray Name="hu" type="Float32" format="ascii">
0.36938
1.1081
1.8467
2.58512
3.32327
4.06107
4.79844
5.5353
6.27158
7.00719
7.74204
8.47605
9.20913
9.94119
10.6721
11.4019
12.1303
12.8573
13.5827
14.3066
15.0286
15.7488
16.467
17.183
17.8968
18.6083
19.3171
20.0232
20.7264
21.4265
22.1233
22.8167
23.5065
24.1925
24.8743
25.5515
26.2232
26.8875
27.541
28.1749
28.7683
29.2687
29.5439
29.2643
27.6465
23.1107
13.792
1.03573
-8.99183
-13.4398
-14.7107
-14.8925
-14.7554
-14.528
-14.2754
-14.0163
-13.7558
-13.4957
-13.236
-12.9769
-12.7182
-12.4597
-12.201
-11.9419
-11.6819
-11.4207
-11.1578
-10.8927
-10.625
-10.3541
-10.0797
-9.80129
-9.51847
-9.23092
-8.93835
-8.64056
-8.33738
-8.02873
-7.71459
-7.39499
-7.07003
-6.73984
-6.40461
-6.06453
-5.71986
-5.37085
-5.01777
-4.66093
-4.3006
-3.93708
-3.57067
-3.20166
-2.83034
-2.457
-2.08191
-1.70536
-1.32762
-0.948957
-0.569638
-0.189923
</DataArray>
<DataArray Name="B" type="Float32" format="ascii">
-2
-2
-2
-2
-2
-2
-2
-2
-2
-2
-2
-2
-2
-2
-2
-2
-2
-2
-2
-2
-2
-2
-2
-2
-2
-2
-2
-2
-2
-2
-2
-2
-2
-2
-2
-2
-2
-2
-2
-2
-2
-2
-2
-2
-2
-2
-2
-2
-2
-2
-2
-2
-2
-2
-2
-2
-2
-2
-2
-2
-2
-2
-2
-2
-2
-2
-2
-2
-2
-2
-2
-2
-2
-2
-2
-2
-2
-2
-2
-2
-2
-2
-2
-2
-2
-2
-2
-2
-2
-2
-2
-2
-2
-2
-2
-2
-2
-2
-2
-2
</DataArray>
</CellData>
</Piece>
</RectilinearGrid>
</VTKFile>
