<?xml version="1.0"?>
<VTKFile type="RectilinearGrid">
<RectilinearGrid WholeExtent="0 100 0 0 0 0">
<Piece Extent="0 100 0 0 0 0">
<Coordinates>
<DataArray type="Float32" format="ascii">
0
10
20
30
40
50
60
70
80
90
100
110
120
130
140
150
160
170
180
190
200
210
220
230
240
250
260
270
280
290
300
310
320
330
340
350
360
370
380
390
400
410
420
430
440
450
460
470
480
490
500
510
520
530
540
550
560
570
580
590
600
610
620
630
640
650
660
670
680
690
700
710
720
730
740
750
760
770
780
790
800
810
820
830
840
850
860
870
880
890
900
910
920
930
940
950
960
970
980
990
1000
</DataArray>
<DataArray type="Float32" format="ascii">
0
</DataArray>
<DataArray type="Float32" format="ascii">
0
</DataArray>
</Coordinates>
<CellData>
<DataArray Name="h" type="Float32" format="ascii">
11.3348
11.3343
11.3332
11.3316
11.3295
11.3268
11.3236
11.3199
11.3155
11.3107
11.3052
11.2991
11.2925
11.2853
11.2774
11.2688
11.2597
11.2498
11.2392
11.2279
11.2158
11.2026
11.1879
11.1708
11.1486
11.1147
11.0527
10.9215
10.6269
9.99228
8.85629
7.46192
6.43765
5.95151
5.7626
5.68438
5.6417
5.60993
5.5815
5.55409
5.52699
5.49998
5.47298
5.44598
5.41896
5.39194
5.36491
5.3379
5.31091
5.28397
5.25713
5.23042
5.20389
5.17762
5.15166
5.1261
5.10103
5.07654
5.05272
5.02968
5.0075
4.98627
4.96607
4.94695
4.92897
4.91216
4.89655
4.88213
4.86889
4.85681
4.84586
4.83599
4.82714
4.81925
4.81227
4.80612
4.80075
4.79608
4.79204
4.78859
4.78565
4.78318
4.78111
4.7794
4.77801
4.77688
4.77599
4.77529
4.77477
4.77437
4.77409
4.7739
4.77378
4.77371
4.77367
4.77366
4.77366
4.77367
4.77368
4.77369
</DataArray>
<DataArray Name="hu" type="Float32" format="ascii">
0.411231
1.23355
2.05544
2.8766
3.69677
4.51563
5.3329
6.14828
6.96145
7.77212
8.57994
9.38459
10.1857
10.983
11.776
12.5643
13.3477
14.1255
14.8974
15.6624
16.4194
17.1659
17.8962
18.5963
19.232
19.7168
19.8343
19.0561
16.21
9.35765
-2.35813
-14.7738
-22.2302
-24.9487
-25.5873
-25.549
-25.3058
-25.0012
-24.6786
-24.3512
-24.0228
-23.6949
-23.3678
-23.0417
-22.7166
-22.3926
-22.0695
-21.7474
-21.4261
-21.1055
-20.7853
-20.4654
-20.1454
-19.8249
-19.5035
-19.1806
-18.8559
-18.5285
-18.198
-17.8637
-17.525
-17.1813
-16.8321
-16.4769
-16.1154
-15.7471
-15.372
-14.9897
-14.6004
-14.2039
-13.8005
-13.3902
-12.9733
-12.55
-12.1206
-11.6854
-11.2448
-10.7989
-10.3482
-9.89305
-9.43366
-8.97039
-8.50353
-8.03337
-7.56017
-7.0842
-6.60571
-6.12492
-5.64206
-5.15733
-4.67093
-4.18306
-3.69388
-3.20358
-2.71232
-2.22025
-1.72753
-1.23431
-0.740724
-0.24693
</DataArray>
<DataArray Name="B" type="Float32" format="ascii">
-2
-2
-2
-2
-2
-2
-2
-2
-2
-2
-2
-2
-2
-2
-2
-2
-2
-2
-2
-2
-2
-2
-2
-2
-2
-2
-2
-2
-2
-2
-2
-2
-2
-2
-2
-2
-2
-2
-2
-2
-2
-2
-2
-2
-2
-2
-2
-2
-2
-2
-2
-2
-2
-2
-2
-2
-2
-2
-2
-2
-2
-2
-2
-2
-2
-2
-2
-2
-2
-2
-2
-2
-2
-2
-2
-2
-2
-2
-2
-2
-2
-2
-2
-2
-2
-2
-2
-2
-2
-2
-2
-2
-2
-2
-2
-2
-2
-2
-2
-2
</DataArray>
</CellData>
</Piece>
</RectilinearGrid>
</VTKFile>
