<?xml version="1.0"?>
<VTKFile type="RectilinearGrid">
<RectilinearGrid WholeExtent="0 100 0 0 0 0">
<Piece Extent="0 100 0 0 0 0">
<Coordinates>
<DataArray type="Float32" format="ascii">
0
10
20
30
40
50
60
70
80
90
100
110
120
130
140
150
160
170
180
190
200
210
220
230
240
250
260
270
280
290
300
310
320
330
340
350
360
370
380
390
400
410
420
430
440
450
460
470
480
490
500
510
520
530
540
550
560
570
580
590
600
610
620
630
640
650
660
670
680
690
700
710
720
730
740
750
760
770
780
790
800
810
820
830
840
850
860
870
880
890
900
910
920
930
940
950
960
970
980
990
1000
</DataArray>
<DataArray type="Float32" format="ascii">
0
</DataArray>
<DataArray type="Float32" format="ascii">
0
</DataArray>
</Coordinates>
<CellData>
<DataArray Name="h" type="Float32" format="ascii">
14.6603
14.5643
14.4577
14.3422
14.2195
14.0911
13.9586
13.8232
13.6865
13.5497
13.4143
13.2816
13.1531
13.0303
12.9149
12.8085
12.7126
12.6285
12.5571
12.4987
12.453
12.4191
12.3952
12.3794
12.3696
12.3641
12.3612
12.36
12.3595
12.3595
12.3597
12.3599
12.3601
12.3603
12.3604
12.3606
12.3607
12.3608
12.3609
12.3609
12.361
12.3611
12.3611
12.3612
12.3612
12.3612
12.3612
12.3613
12.3613
12.3613
12.3613
12.3613
12.3613
12.3613
12.3613
12.3613
12.3612
12.3612
12.3612
12.3611
12.3611
12.3611
12.361
12.361
12.361
12.3609
12.3609
12.3609
12.3608
12.3608
12.3607
12.3606
12.3606
12.3605
12.3604
12.3603
12.3602
12.3601
12.36
12.3599
12.3598
12.3596
12.3595
12.3593
12.3592
12.3589
12.3587
12.3583
12.3576
12.3561
12.3524
12.3422
12.3136
12.2357
12.0417
11.646
11.078
10.5579
10.241
10.0938
</DataArray>
<DataArray Name="hu" type="Float32" format="ascii">
4.04673
5.16643
6.39502
7.71024
9.09024
10.5145
11.9641
13.4219
14.8723
16.3008
17.6935
19.0369
20.3181
21.5238
22.6412
23.6581
24.5636
25.3493
26.0102
26.5463
26.9631
27.2719
27.4883
27.631
27.7188
27.7685
27.794
27.8052
27.8087
27.8085
27.8068
27.8046
27.8024
27.8004
27.7985
27.7969
27.7953
27.7939
27.7927
27.7915
27.7904
27.7893
27.7884
27.7874
27.7866
27.7857
27.7849
27.7841
27.7834
27.7826
27.7819
27.7812
27.7806
27.7799
27.7793
27.7787
27.7781
27.7775
27.7769
27.7763
27.7756
27.775
27.7742
27.7734
27.7726
27.7718
27.7709
27.7699
27.769
27.768
27.7671
27.7661
27.7651
27.7641
27.763
27.7618
27.7605
27.759
27.7575
27.7558
27.7539
27.7519
27.7496
27.7473
27.7447
27.7418
27.7381
27.7329
27.724
27.7043
27.6534
27.5139
27.1261
26.0763
23.5009
18.4386
11.6137
5.78622
2.43736
0.937176
</DataArray>
</CellData>
</Piece>
</RectilinearGrid>
</VTKFile>
