<?xml version="1.0"?>
<VTKFile type="RectilinearGrid">
<RectilinearGrid WholeExtent="0 100 0 0 0 0">
<Piece Extent="0 100 0 0 0 0">
<Coordinates>
<DataArray type="Float32" format="ascii">
0
10
20
30
40
50
60
70
80
90
100
110
120
130
140
150
160
170
180
190
200
210
220
230
240
250
260
270
280
290
300
310
320
330
340
350
360
370
380
390
400
410
420
430
440
450
460
470
480
490
500
510
520
530
540
550
560
570
580
590
600
610
620
630
640
650
660
670
680
690
700
710
720
730
740
750
760
770
780
790
800
810
820
830
840
850
860
870
880
890
900
910
920
930
940
950
960
970
980
990
1000
</DataArray>
<DataArray type="Float32" format="ascii">
0
</DataArray>
<DataArray type="Float32" format="ascii">
0
</DataArray>
</Coordinates>
<CellData>
<DataArray Name="h" type="Float32" format="ascii">
15
15
15
15
15
15
14.9999
14.9998
14.9992
14.9973
14.9927
14.9824
14.9624
14.9279
14.8746
14.7992
14.7009
14.5805
14.4405
14.2843
14.1154
13.9376
13.7545
13.5699
13.3874
13.2107
13.0437
12.8904
12.7544
12.6389
12.5456
12.475
12.4252
12.393
12.3741
12.3642
12.3597
12.3581
12.3578
12.358
12.3583
12.3586
12.3588
12.359
12.3592
12.3594
12.3595
12.3596
12.3597
12.3597
12.3598
12.3598
12.3598
12.3598
12.3598
12.3598
12.3598
12.3598
12.3597
12.3597
12.3596
12.3595
12.3594
12.3593
12.3592
12.359
12.3589
12.3587
12.3585
12.3582
12.3579
12.3574
12.3568
12.3554
12.3518
12.342
12.3139
12.2366
12.043
11.6473
11.0777
10.5546
10.236
10.0891
10.0311
10.0102
10.0031
10.0009
10.0002
10.0001
10
10
10
10
10
10
10
10
10
10
</DataArray>
<DataArray Name="hu" type="Float32" format="ascii">
4.10508e-19
1.70849e-14
6.99436e-11
9.64444e-08
9.49008e-06
0.000109119
0.00062624
0.0027719
0.0102561
0.0324193
0.0888046
0.213468
0.455199
0.870673
1.51137
2.40973
3.57167
4.97774
6.59024
8.36199
10.2434
12.1864
14.1466
16.083
17.9576
19.7345
21.3801
22.8629
24.1556
25.238
26.1007
26.7485
27.2016
27.4933
27.6638
27.7527
27.7926
27.8067
27.8089
27.8066
27.8029
27.7993
27.796
27.793
27.7904
27.7879
27.7857
27.7836
27.7816
27.7797
27.7779
27.7762
27.7745
27.7728
27.7712
27.7695
27.7678
27.7661
27.7644
27.7625
27.7606
27.7586
27.7565
27.7543
27.752
27.7495
27.7467
27.7437
27.7405
27.7368
27.7322
27.7263
27.717
27.698
27.6495
27.5146
27.1331
26.09
23.5199
18.4562
11.611
5.75173
2.38628
0.889951
0.309398
0.101118
0.0309184
0.00875694
0.00227399
0.000538448
0.000114805
1.93958e-05
1.37005e-06
9.57625e-09
2.31202e-11
1.46605e-13
2.94458e-16
5.50903e-19
8.63527e-22
3.53856e-25
</DataArray>
</CellData>
</Piece>
</RectilinearGrid>
</VTKFile>
