<?xml version="1.0"?>
<VTKFile type="RectilinearGrid">
<RectilinearGrid WholeExtent="0 100 0 0 0 0">
<Piece Extent="0 100 0 0 0 0">
<Coordinates>
<DataArray type="Float32" format="ascii">
0
10
20
30
40
50
60
70
80
90
100
110
120
130
140
150
160
170
180
190
200
210
220
230
240
250
260
270
280
290
300
310
320
330
340
350
360
370
380
390
400
410
420
430
440
450
460
470
480
490
500
510
520
530
540
550
560
570
580
590
600
610
620
630
640
650
660
670
680
690
700
710
720
730
740
750
760
770
780
790
800
810
820
830
840
850
860
870
880
890
900
910
920
930
940
950
960
970
980
990
1000
</DataArray>
<DataArray type="Float32" format="ascii">
0
</DataArray>
<DataArray type="Float32" format="ascii">
0
</DataArray>
</Coordinates>
<CellData>
<DataArray Name="h" type="Float32" format="ascii">
12.4325
12.3899
12.3605
12.3277
12.3477
12.309
12.3313
12.3569
12.3447
12.3639
12.3649
12.3691
12.3621
12.3738
12.357
12.3727
12.3631
12.3609
12.3695
12.3738
12.3388
12.4024
12.3321
12.3837
12.3569
12.3661
12.358
12.3706
12.3542
12.3684
12.3568
12.3677
12.3565
12.3696
12.3495
12.3822
12.3349
12.3952
12.3314
12.378
12.3648
12.3534
12.365
12.3634
12.3642
12.357
12.3663
12.3595
12.3664
12.3545
12.3722
12.3533
12.3669
12.361
12.3627
12.3596
12.3688
12.3481
12.3856
12.3338
12.3831
12.353
12.3678
12.3499
12.3758
12.3584
12.3544
12.3734
12.3488
12.3804
12.338
12.386
12.3408
12.3792
12.3495
12.3641
12.3705
12.3483
12.3691
12.3646
12.3546
12.3653
12.3622
12.3625
12.3551
12.3679
12.3636
12.3465
12.3637
12.3591
12.4913
12.5271
12.1122
12.3675
12.5893
12.2623
12.41
12.3937
12.3667
12.5318
</DataArray>
<DataArray Name="hu" type="Float32" format="ascii">
27.1626
27.5523
27.8795
27.9194
28.41
27.9251
28.1024
28.2211
27.8455
27.9074
27.841
27.8395
27.7807
27.9415
27.7526
27.9566
27.8427
27.7871
27.9363
27.934
27.5264
28.3209
27.4154
28.0816
27.7398
27.8418
27.756
27.8978
27.6981
27.8727
27.7288
27.8586
27.7308
27.8708
27.6495
28.0288
27.4519
28.2156
27.3855
28.0034
27.8211
27.6744
27.8262
27.8108
27.8094
27.7281
27.8357
27.7618
27.8327
27.6963
27.9118
27.6767
27.8416
27.7805
27.7801
27.7658
27.8601
27.6156
28.0856
27.4176
28.0668
27.6638
27.8589
27.6246
27.9698
27.7249
27.698
27.914
27.624
28.0101
27.4832
28.0906
27.5095
28.0091
27.6159
27.8248
27.886
27.5989
27.8804
27.8211
27.6848
27.8075
27.7864
27.8115
27.7005
27.8225
27.7862
27.7496
27.9844
27.5391
26.8106
26.2542
29.6017
28.3401
25.1782
28.6628
27.483
27.4253
27.3933
29.4019
</DataArray>
</CellData>
</Piece>
</RectilinearGrid>
</VTKFile>
