<?xml version="1.0"?>
<VTKFile type="RectilinearGrid">
<RectilinearGrid WholeExtent="0 100 0 0 0 0">
<Piece Extent="0 100 0 0 0 0">
<Coordinates>
<DataArray type="Float32" format="ascii">
0
10
20
30
40
50
60
70
80
90
100
110
120
130
140
150
160
170
180
190
200
210
220
230
240
250
260
270
280
290
300
310
320
330
340
350
360
370
380
390
400
410
420
430
440
450
460
470
480
490
500
510
520
530
540
550
560
570
580
590
600
610
620
630
640
650
660
670
680
690
700
710
720
730
740
750
760
770
780
790
800
810
820
830
840
850
860
870
880
890
900
910
920
930
940
950
960
970
980
990
1000
</DataArray>
<DataArray type="Float32" format="ascii">
0
</DataArray>
<DataArray type="Float32" format="ascii">
0
</DataArray>
</Coordinates>
<CellData>
<DataArray Name="h" type="Float32" format="ascii">
15
15
15
14.9999
14.9997
14.9989
14.9967
14.9916
14.9808
14.9608
14.9272
14.8764
14.8058
14.7145
14.6033
14.4743
14.3301
14.174
14.009
13.8383
13.6647
13.4913
13.3212
13.1575
13.0033
12.8621
12.7367
12.6298
12.5429
12.4762
12.4282
12.3963
12.3769
12.3662
12.361
12.3588
12.3582
12.3582
12.3585
12.3588
12.359
12.3593
12.3595
12.3596
12.3597
12.3599
12.3599
12.36
12.3601
12.3601
12.3602
12.3602
12.3602
12.3602
12.3602
12.3602
12.3602
12.3601
12.3601
12.36
12.36
12.3599
12.3599
12.3598
12.3597
12.3596
12.3594
12.3593
12.3591
12.3589
12.3587
12.3585
12.3583
12.3579
12.3575
12.3567
12.355
12.3505
12.3379
12.3023
12.2062
11.9736
11.5288
10.9479
10.4656
10.1929
10.0721
10.0252
10.0083
10.0026
10.0007
10.0002
10
10
10
10
10
10
10
10
</DataArray>
<DataArray Name="hu" type="Float32" format="ascii">
5.70097e-06
3.0827e-05
0.000209011
0.00101802
0.00401414
0.0135316
0.0395912
0.101783
0.232279
0.475084
0.879578
1.48945
2.33186
3.41178
4.71303
6.20413
7.84536
9.5946
11.4109
13.2563
15.0957
16.897
18.6299
20.2655
21.7765
23.1373
24.3257
25.3255
26.1292
26.7409
27.1775
27.4666
27.6421
27.7385
27.7851
27.8039
27.8089
27.808
27.805
27.8017
27.7986
27.7958
27.7932
27.7909
27.7888
27.7869
27.7851
27.7833
27.7817
27.7802
27.7787
27.7772
27.7758
27.7744
27.773
27.7717
27.7703
27.7688
27.7674
27.7659
27.7643
27.7627
27.7611
27.7593
27.7575
27.7557
27.7537
27.7516
27.7493
27.7467
27.7439
27.7406
27.7368
27.7321
27.7258
27.715
27.691
27.6294
27.4577
26.975
25.6793
22.6104
16.9917
10.1223
4.79645
1.94295
0.718737
0.250259
0.0825024
0.0256184
0.0074248
0.0019916
0.000487463
0.000108222
2.19481e-05
1.38237e-06
1.04125e-08
7.09586e-11
1.75081e-13
1.08583e-15
</DataArray>
</CellData>
</Piece>
</RectilinearGrid>
</VTKFile>
