<?xml version="1.0"?>
<VTKFile type="RectilinearGrid">
<RectilinearGrid WholeExtent="0 100 0 0 0 0">
<Piece Extent="0 100 0 0 0 0">
<Coordinates>
<DataArray type="Float32" format="ascii">
0
10
20
30
40
50
60
70
80
90
100
110
120
130
140
150
160
170
180
190
200
210
220
230
240
250
260
270
280
290
300
310
320
330
340
350
360
370
380
390
400
410
420
430
440
450
460
470
480
490
500
510
520
530
540
550
560
570
580
590
600
610
620
630
640
650
660
670
680
690
700
710
720
730
740
750
760
770
780
790
800
810
820
830
840
850
860
870
880
890
900
910
920
930
940
950
960
970
980
990
1000
</DataArray>
<DataArray type="Float32" format="ascii">
0
</DataArray>
<DataArray type="Float32" format="ascii">
0
</DataArray>
</Coordinates>
<CellData>
<DataArray Name="h" type="Float32" format="ascii">
14.9912
14.9813
14.9637
14.9353
14.8932
14.8354
14.761
14.6702
14.5642
14.4449
14.3144
14.175
14.0289
13.8781
13.7248
13.5709
13.4184
13.2694
13.1261
12.9906
12.8653
12.7523
12.6536
12.5705
12.5036
12.4525
12.4156
12.3908
12.3753
12.3664
12.3618
12.3597
12.359
12.3589
12.3591
12.3593
12.3595
12.3597
12.3599
12.3601
12.3602
12.3603
12.3604
12.3605
12.3606
12.3606
12.3607
12.3607
12.3608
12.3608
12.3608
12.3608
12.3608
12.3608
12.3608
12.3608
12.3608
12.3608
12.3607
12.3607
12.3607
12.3606
12.3605
12.3605
12.3604
12.3603
12.3603
12.3602
12.3601
12.36
12.3599
12.3598
12.3597
12.3596
12.3595
12.3593
12.3591
12.3589
12.3587
12.3584
12.358
12.3573
12.3559
12.3524
12.3427
12.3154
12.2408
12.0536
11.6669
11.1016
10.5741
10.2483
10.0961
10.0349
10.0121
10.004
10.0013
10.0004
10.0001
10
</DataArray>
<DataArray Name="hu" type="Float32" format="ascii">
0.106649
0.226877
0.439684
0.78218
1.28777
1.97897
2.86319
3.9327
5.1679
6.54181
8.02434
9.58538
11.1964
12.8312
14.4659
16.0784
17.6481
19.1552
20.5805
21.9054
23.112
24.1844
25.1099
25.8806
26.4958
26.9631
27.2981
27.523
27.663
27.743
27.7841
27.8023
27.8084
27.8087
27.8067
27.8041
27.8014
27.7989
27.7967
27.7947
27.7929
27.7913
27.7897
27.7883
27.787
27.7858
27.7846
27.7835
27.7824
27.7814
27.7804
27.7794
27.7784
27.7774
27.7764
27.7754
27.7744
27.7734
27.7725
27.7715
27.7705
27.7696
27.7686
27.7676
27.7665
27.7654
27.7642
27.7628
27.7614
27.7599
27.7583
27.7565
27.7546
27.7526
27.7505
27.7481
27.7455
27.7428
27.7396
27.7357
27.7303
27.7215
27.7025
27.6541
27.5215
27.1514
26.1451
23.6569
18.6985
11.887
5.96184
2.51299
0.960166
0.346814
0.120027
0.039772
0.012536
0.00372972
0.00103829
0.000266018
</DataArray>
</CellData>
</Piece>
</RectilinearGrid>
</VTKFile>
