<?xml version="1.0"?>
<VTKFile type="RectilinearGrid">
<RectilinearGrid WholeExtent="0 100 0 0 0 0">
<Piece Extent="0 100 0 0 0 0">
<Coordinates>
<DataArray type="Float32" format="ascii">
0
10
20
30
40
50
60
70
80
90
100
110
120
130
140
150
160
170
180
190
200
210
220
230
240
250
260
270
280
290
300
310
320
330
340
350
360
370
380
390
400
410
420
430
440
450
460
470
480
490
500
510
520
530
540
550
560
570
580
590
600
610
620
630
640
650
660
670
680
690
700
710
720
730
740
750
760
770
780
790
800
810
820
830
840
850
860
870
880
890
900
910
920
930
940
950
960
970
980
990
1000
</DataArray>
<DataArray type="Float32" format="ascii">
0
</DataArray>
<DataArray type="Float32" format="ascii">
0
</DataArray>
</Coordinates>
<CellData>
<DataArray Name="h" type="Float32" format="ascii">
15
15
15
15
15
15
15
15
15
15
15
15
15
15
15
15
15
15
15
15
15
15
15
15
15
15
15
15
15
15
15
15
14.9998
14.9983
14.9913
14.9673
14.9061
14.7835
14.584
14.3083
13.9729
13.6056
13.2399
12.9119
12.6536
12.4828
12.3931
12.3586
12.3501
12.3496
12.3503
12.3507
12.3507
12.3503
12.348
12.3387
12.3038
12.1933
11.9128
11.3954
10.7792
10.3269
10.1074
10.0285
10.0061
10.001
10.0001
10
10
10
10
10
10
10
10
10
10
10
10
10
10
10
10
10
10
10
10
10
10
10
10
10
10
10
10
10
10
10
10
10
</DataArray>
<DataArray Name="hu" type="Float32" format="ascii">
0
0
0
0
0
0
0
0
0
0
0
0
0
0
0
0
0
0
0
0
0
0
0
0
0
0
0
0
0
0
6.07919e-06
0.00022234
0.00279394
0.0207841
0.105961
0.395621
1.13328
2.59353
4.9302
8.07736
11.7765
15.671
19.3881
22.5911
25.0291
26.6038
27.4171
27.7246
27.7933
27.7885
27.7718
27.7553
27.7384
27.717
27.6742
27.5375
27.0554
25.5585
21.8653
15.4013
8.23743
3.3362
1.07461
0.283543
0.0608826
0.0103294
0.00132185
0.000116987
5.3555e-06
6.09308e-09
0
0
0
0
0
0
0
0
0
0
0
0
0
0
0
0
0
0
0
0
0
0
0
0
0
0
0
0
0
0
</DataArray>
</CellData>
</Piece>
</RectilinearGrid>
</VTKFile>
