<?xml version="1.0"?>
<VTKFile type="RectilinearGrid">
<RectilinearGrid WholeExtent="0 100 0 0 0 0">
<Piece Extent="0 100 0 0 0 0">
<Coordinates>
<DataArray type="Float32" format="ascii">
0
10
20
30
40
50
60
70
80
90
100
110
120
130
140
150
160
170
180
190
200
210
220
230
240
250
260
270
280
290
300
310
320
330
340
350
360
370
380
390
400
410
420
430
440
450
460
470
480
490
500
510
520
530
540
550
560
570
580
590
600
610
620
630
640
650
660
670
680
690
700
710
720
730
740
750
760
770
780
790
800
810
820
830
840
850
860
870
880
890
900
910
920
930
940
950
960
970
980
990
1000
</DataArray>
<DataArray type="Float32" format="ascii">
0
</DataArray>
<DataArray type="Float32" format="ascii">
0
</DataArray>
</Coordinates>
<CellData>
<DataArray Name="h" type="Float32" format="ascii">
12.3514
12.3571
12.3602
12.3614
12.361
12.3606
12.3597
12.3602
12.359
12.361
12.3606
12.3563
12.3627
12.3924
12.2549
12.5096
12.3021
12.3101
12.4441
12.3267
12.3714
12.3606
12.3792
12.3245
12.4199
12.3058
12.4012
12.3775
12.3197
12.3696
12.4546
12.1554
12.6286
12.1969
12.4576
12.3347
12.3832
12.3221
12.4144
12.314
12.3997
12.3255
12.3934
12.3264
12.4114
12.2672
12.5027
12.1646
12.6035
12.2076
12.411
12.4015
12.3233
12.3655
12.3615
12.3838
12.3326
12.3796
12.3438
12.3952
12.3034
12.4266
12.315
12.3799
12.359
12.3623
12.3417
12.4121
12.2378
12.5425
12.202
12.465
12.3154
12.419
12.2709
12.4281
12.3646
12.3056
12.4282
12.2665
12.525
12.2715
12.564
12.241
12.4776
12.3343
12.3816
12.4647
12.3106
12.403
12.4235
12.3573
12.3946
12.3877
12.4171
12.3504
12.4059
12.4108
12.3362
12.4634
</DataArray>
<DataArray Name="hu" type="Float32" format="ascii">
27.8767
27.8239
27.794
27.7819
27.784
27.7883
27.7947
27.7949
27.7979
27.7996
27.8255
27.707
27.889
28.1495
26.4446
29.7849
26.9677
27.1786
28.8965
27.3886
27.9403
27.8591
28.027
27.3933
28.5662
27.1267
28.337
28.0894
27.1782
28.101
28.8881
25.2723
31.2844
25.7019
29.0654
27.5132
28.0683
27.3596
28.4823
27.2502
28.2769
27.4152
28.1677
27.4658
28.348
26.7332
29.5429
25.3386
30.967
25.7532
28.471
28.2911
27.2906
27.819
27.8179
28.0612
27.451
28.0087
27.6193
28.2031
27.0889
28.6386
27.2222
28.0224
27.8301
27.7504
27.668
28.3683
26.3314
30.1373
25.7828
29.1524
27.2419
28.5549
26.6094
28.7609
27.7639
27.2033
28.6414
26.6287
29.2083
25.3729
29.3582
26.1124
29.2557
26.6887
27.2673
28.5653
26.6033
27.792
27.9795
27.1056
27.5685
27.4946
27.868
26.9609
27.7557
27.719
26.8231
28.4649
</DataArray>
</CellData>
</Piece>
</RectilinearGrid>
</VTKFile>
