<?xml version="1.0"?>
<VTKFile type="RectilinearGrid">
<RectilinearGrid WholeExtent="0 100 0 0 0 0">
<Piece Extent="0 100 0 0 0 0">
<Coordinates>
<DataArray type="Float32" format="ascii">
0
10
20
30
40
50
60
70
80
90
100
110
120
130
140
150
160
170
180
190
200
210
220
230
240
250
260
270
280
290
300
310
320
330
340
350
360
370
380
390
400
410
420
430
440
450
460
470
480
490
500
510
520
530
540
550
560
570
580
590
600
610
620
630
640
650
660
670
680
690
700
710
720
730
740
750
760
770
780
790
800
810
820
830
840
850
860
870
880
890
900
910
920
930
940
950
960
970
980
990
1000
</DataArray>
<DataArray type="Float32" format="ascii">
0
</DataArray>
<DataArray type="Float32" format="ascii">
0
</DataArray>
</Coordinates>
<CellData>
<DataArray Name="h" type="Float32" format="ascii">
15
15
15
15
15
15
15
15
15
15
15
15
15
15
15
15
15
15
15
15
15
15
14.9999
14.9997
14.9983
14.9935
14.98
14.9486
14.8882
14.7888
14.6455
14.4598
14.2383
13.9904
13.7274
13.461
13.2036
12.9676
12.7649
12.6044
12.4897
12.4176
12.3788
12.3616
12.3557
12.3545
12.3548
12.3553
12.3558
12.3561
12.3563
12.3565
12.3566
12.3566
12.3565
12.3564
12.3562
12.356
12.3556
12.3551
12.3539
12.3509
12.3416
12.3126
12.2291
12.0181
11.5954
11.0099
10.4959
10.1971
10.0671
10.0201
10.0053
10.0012
10.0002
10
10
10
10
10
10
10
10
10
10
10
10
10
10
10
10
10
10
10
10
10
10
10
10
10
</DataArray>
<DataArray Name="hu" type="Float32" format="ascii">
0
0
0
0
0
0
0
0
0
0
0
0
0
0
0
0
0
0
0
1.35904e-10
5.65411e-06
6.56828e-05
0.000633121
0.00416717
0.0204229
0.0783613
0.242656
0.621689
1.34836
2.53322
4.21879
6.36558
8.87157
11.6034
14.4206
17.1887
19.7835
22.0942
24.0295
25.5304
26.5859
27.2423
27.5925
27.7465
27.7979
27.8064
27.8014
27.7939
27.7866
27.7801
27.7742
27.7687
27.7635
27.7583
27.7529
27.7472
27.741
27.7341
27.7262
27.716
27.6983
27.6548
27.5252
27.1301
26.0023
23.2049
17.8215
10.8358
5.12244
1.98745
0.669131
0.199619
0.0525301
0.0119961
0.00232716
0.000370759
4.57015e-05
4.35999e-06
8.22107e-09
1.33094e-11
5.51575e-15
0
0
0
0
0
0
0
0
0
0
0
0
0
0
0
0
0
0
0
</DataArray>
</CellData>
</Piece>
</RectilinearGrid>
</VTKFile>
