<?xml version="1.0"?>
<VTKFile type="RectilinearGrid">
<RectilinearGrid WholeExtent="0 100 0 0 0 0">
<Piece Extent="0 100 0 0 0 0">
<Coordinates>
<DataArray type="Float32" format="ascii">
0
10
20
30
40
50
60
70
80
90
100
110
120
130
140
150
160
170
180
190
200
210
220
230
240
250
260
270
280
290
300
310
320
330
340
350
360
370
380
390
400
410
420
430
440
450
460
470
480
490
500
510
520
530
540
550
560
570
580
590
600
610
620
630
640
650
660
670
680
690
700
710
720
730
740
750
760
770
780
790
800
810
820
830
840
850
860
870
880
890
900
910
920
930
940
950
960
970
980
990
1000
</DataArray>
<DataArray type="Float32" format="ascii">
0
</DataArray>
<DataArray type="Float32" format="ascii">
0
</DataArray>
</Coordinates>
<CellData>
<DataArray Name="h" type="Float32" format="ascii">
14.0954
13.9729
13.848
13.7217
13.5951
13.4693
13.3452
13.224
13.1069
12.9951
12.89
12.7927
12.7046
12.6267
12.5598
12.5042
12.4598
12.4259
12.4012
12.3842
12.3732
12.3665
12.3628
12.3609
12.3601
12.3599
12.3599
12.3601
12.3602
12.3604
12.3606
12.3607
12.3608
12.3609
12.361
12.3611
12.3612
12.3613
12.3613
12.3614
12.3614
12.3614
12.3615
12.3615
12.3615
12.3615
12.3616
12.3616
12.3616
12.3616
12.3616
12.3615
12.3615
12.3615
12.3615
12.3615
12.3615
12.3614
12.3614
12.3614
12.3614
12.3614
12.3614
12.3613
12.3613
12.3613
12.3612
12.3612
12.3612
12.3611
12.3611
12.361
12.3609
12.3609
12.3608
12.3608
12.3607
12.3607
12.3606
12.3605
12.3605
12.3604
12.3603
12.3602
12.36
12.3599
12.3598
12.3596
12.3595
12.3593
12.3592
12.3589
12.3586
12.3582
12.3574
12.3553
12.3496
12.3338
12.2885
12.1531
</DataArray>
<DataArray Name="hu" type="Float32" format="ascii">
10.4589
11.8032
13.1545
14.5007
15.8306
17.1335
18.3991
19.6173
20.7779
21.8706
22.8853
23.8123
24.6428
25.3698
25.9888
26.4993
26.9047
27.2132
27.4369
27.5906
27.6901
27.7501
27.7836
27.8003
27.8073
27.8091
27.8084
27.8067
27.8048
27.8028
27.801
27.7993
27.7978
27.7965
27.7953
27.7941
27.7931
27.7921
27.7912
27.7904
27.7896
27.7889
27.7881
27.7874
27.7868
27.7861
27.7855
27.7849
27.7843
27.7837
27.7832
27.7827
27.7822
27.7818
27.7813
27.7808
27.7804
27.7799
27.7794
27.7788
27.7782
27.7776
27.777
27.7764
27.7757
27.7751
27.7745
27.7738
27.7732
27.7726
27.7719
27.7712
27.7705
27.7696
27.7688
27.7678
27.7668
27.7657
27.7646
27.7635
27.7623
27.7611
27.7599
27.7585
27.7571
27.7555
27.7538
27.7519
27.7498
27.7474
27.7446
27.7414
27.7375
27.7315
27.7197
27.6929
27.622
27.4138
26.7674
24.834
</DataArray>
</CellData>
</Piece>
</RectilinearGrid>
</VTKFile>
