<?xml version="1.0"?>
<VTKFile type="RectilinearGrid">
<RectilinearGrid WholeExtent="0 100 0 0 0 0">
<Piece Extent="0 100 0 0 0 0">
<Coordinates>
<DataArray type="Float32" format="ascii">
0
10
20
30
40
50
60
70
80
90
100
110
120
130
140
150
160
170
180
190
200
210
220
230
240
250
260
270
280
290
300
310
320
330
340
350
360
370
380
390
400
410
420
430
440
450
460
470
480
490
500
510
520
530
540
550
560
570
580
590
600
610
620
630
640
650
660
670
680
690
700
710
720
730
740
750
760
770
780
790
800
810
820
830
840
850
860
870
880
890
900
910
920
930
940
950
960
970
980
990
1000
</DataArray>
<DataArray type="Float32" format="ascii">
0
</DataArray>
<DataArray type="Float32" format="ascii">
0
</DataArray>
</Coordinates>
<CellData>
<DataArray Name="h" type="Float32" format="ascii">
15
15
15
15
15
15
15
15
15
15
15
15
15
15
15
15
15
15
15
15
15
15
15
15
15
15
15
15
15
15
15
15
15
15
14.9995
14.9966
14.9838
14.9431
14.847
14.6697
14.4019
14.0565
13.6641
13.2659
12.9081
12.6323
12.4595
12.3778
12.3519
12.3478
12.3483
12.3487
12.3484
12.3459
12.3342
12.2884
12.1434
11.7944
11.2133
10.6123
10.2306
10.0675
10.0157
10.0029
10.0004
10
10
10
10
10
10
10
10
10
10
10
10
10
10
10
10
10
10
10
10
10
10
10
10
10
10
10
10
10
10
10
10
10
10
10
</DataArray>
<DataArray Name="hu" type="Float32" format="ascii">
0
0
0
0
0
0
0
0
0
0
0
0
0
0
0
0
0
0
0
0
0
0
0
0
0
0
0
0
0
0
0
0
1.51104e-05
0.000492794
0.0057987
0.0409602
0.196787
0.687932
1.83906
3.93181
7.01639
10.8621
15.0541
19.1184
22.6137
25.2124
26.8
27.5364
27.7627
27.7888
27.7704
27.7486
27.7233
27.6723
27.4979
26.8612
24.9064
20.3584
13.2343
6.39595
2.33459
0.673601
0.155728
0.0282416
0.00384443
0.000367054
2.03381e-05
8.25233e-08
0
0
0
0
0
0
0
0
0
0
0
0
0
0
0
0
0
0
0
0
0
0
0
0
0
0
0
0
0
0
0
0
</DataArray>
</CellData>
</Piece>
</RectilinearGrid>
</VTKFile>
