<?xml version="1.0"?>
<VTKFile type="RectilinearGrid">
<RectilinearGrid WholeExtent="0 100 0 0 0 0">
<Piece Extent="0 100 0 0 0 0">
<Coordinates>
<DataArray type="Float32" format="ascii">
0
10
20
30
40
50
60
70
80
90
100
110
120
130
140
150
160
170
180
190
200
210
220
230
240
250
260
270
280
290
300
310
320
330
340
350
360
370
380
390
400
410
420
430
440
450
460
470
480
490
500
510
520
530
540
550
560
570
580
590
600
610
620
630
640
650
660
670
680
690
700
710
720
730
740
750
760
770
780
790
800
810
820
830
840
850
860
870
880
890
900
910
920
930
940
950
960
970
980
990
1000
</DataArray>
<DataArray type="Float32" format="ascii">
0
</DataArray>
<DataArray type="Float32" format="ascii">
0
</DataArray>
</Coordinates>
<CellData>
<DataArray Name="h" type="Float32" format="ascii">
12.3256
12.3299
12.3388
12.3476
12.3563
12.3604
12.3608
12.3622
12.3846
12.2902
12.4638
12.3131
12.3289
12.4226
12.3363
12.3715
12.3625
12.3765
12.3378
12.4048
12.3244
12.3926
12.3707
12.3341
12.3691
12.4303
12.2187
12.5469
12.237
12.435
12.3426
12.3792
12.3357
12.4014
12.328
12.3905
12.336
12.3856
12.3344
12.3983
12.293
12.4645
12.2219
12.5278
12.2429
12.4027
12.3889
12.3319
12.3663
12.363
12.3775
12.3407
12.3766
12.3493
12.3866
12.3214
12.4091
12.3278
12.3766
12.3595
12.363
12.3462
12.4003
12.277
12.4889
12.2415
12.4403
12.3275
12.4024
12.2975
12.4112
12.3623
12.3212
12.413
12.2911
12.4581
12.2509
12.4733
12.2675
12.4413
12.3182
12.3519
12.4105
12.3029
12.4109
12.4915
12.3925
12.2988
12.362
12.4672
12.3561
12.3797
12.4041
12.3483
12.4399
12.3371
12.4142
12.4208
12.2924
12.5058
</DataArray>
<DataArray Name="hu" type="Float32" format="ascii">
28.1016
28.0637
27.9867
27.9076
27.8362
27.8172
27.7373
27.8208
28.0515
26.9079
29.1833
27.1389
27.4169
28.6015
27.4842
27.9182
27.8392
27.9635
27.5174
28.3411
27.3301
28.2058
27.9868
27.4025
28.0394
28.6137
26.072
30.217
26.1988
28.7398
27.5628
27.9846
27.4833
28.2788
27.38
28.1348
27.5101
28.0727
27.5436
28.2183
27.0289
29.079
26.0728
29.9782
26.2212
28.348
28.1248
27.3968
27.8285
27.8188
27.9702
27.5292
27.9553
27.6538
28.0769
27.2864
28.3863
27.356
27.9622
27.8062
27.7698
27.6784
28.2213
26.7861
29.4251
26.2617
28.8032
27.3597
28.3114
26.9365
28.4989
27.746
27.3493
28.4067
26.9788
28.9966
26.4103
29.2291
26.5921
28.8424
27.1615
27.7104
28.5358
27.0732
27.6934
27.1378
26.9227
28.4393
27.7622
27.2125
27.1473
27.8911
27.6721
27.0286
28.2061
26.7876
27.8803
27.8403
26.2771
29.0387
</DataArray>
</CellData>
</Piece>
</RectilinearGrid>
</VTKFile>
