<?xml version="1.0"?>
<VTKFile type="RectilinearGrid">
<RectilinearGrid WholeExtent="0 100 0 0 0 0">
<Piece Extent="0 100 0 0 0 0">
<Coordinates>
<DataArray type="Float32" format="ascii">
0
10
20
30
40
50
60
70
80
90
100
110
120
130
140
150
160
170
180
190
200
210
220
230
240
250
260
270
280
290
300
310
320
330
340
350
360
370
380
390
400
410
420
430
440
450
460
470
480
490
500
510
520
530
540
550
560
570
580
590
600
610
620
630
640
650
660
670
680
690
700
710
720
730
740
750
760
770
780
790
800
810
820
830
840
850
860
870
880
890
900
910
920
930
940
950
960
970
980
990
1000
</DataArray>
<DataArray type="Float32" format="ascii">
0
</DataArray>
<DataArray type="Float32" format="ascii">
0
</DataArray>
</Coordinates>
<CellData>
<DataArray Name="h" type="Float32" format="ascii">
14.2982
14.1797
14.0566
13.9301
13.8014
13.6717
13.5421
13.4137
13.2877
13.1654
13.048
12.9371
12.8338
12.7397
12.6558
12.5832
12.5224
12.4734
12.4355
12.4076
12.3883
12.3756
12.3678
12.3634
12.3611
12.3601
12.3598
12.3598
12.3599
12.3601
12.3603
12.3605
12.3606
12.3607
12.3609
12.361
12.361
12.3611
12.3612
12.3612
12.3613
12.3613
12.3614
12.3614
12.3614
12.3614
12.3615
12.3615
12.3615
12.3615
12.3615
12.3615
12.3615
12.3614
12.3614
12.3614
12.3614
12.3614
12.3613
12.3613
12.3613
12.3613
12.3613
12.3612
12.3612
12.3612
12.3611
12.3611
12.3611
12.361
12.3609
12.3609
12.3608
12.3608
12.3607
12.3606
12.3606
12.3605
12.3604
12.3603
12.3603
12.3602
12.3601
12.3599
12.3598
12.3596
12.3595
12.3593
12.3591
12.3589
12.3586
12.3581
12.3571
12.3547
12.3483
12.3305
12.2812
12.1519
11.8579
11.3531
</DataArray>
<DataArray Name="hu" type="Float32" format="ascii">
8.20054
9.52919
10.8911
12.2708
13.6541
15.0282
16.3809
17.7009
18.9769
20.1978
21.3524
22.4299
23.4194
24.3111
25.0968
25.7708
26.3311
26.78
27.1249
27.3775
27.5529
27.6676
27.7377
27.7773
27.7974
27.8062
27.8088
27.8084
27.8068
27.8048
27.8027
27.8008
27.7991
27.7976
27.7962
27.7949
27.7937
27.7926
27.7916
27.7907
27.7898
27.789
27.7882
27.7874
27.7867
27.786
27.7853
27.7846
27.7839
27.7833
27.7827
27.7822
27.7816
27.7811
27.7807
27.7802
27.7797
27.7792
27.7786
27.778
27.7775
27.7768
27.7762
27.7755
27.7747
27.774
27.7733
27.7726
27.7718
27.7711
27.7704
27.7696
27.7688
27.768
27.7671
27.766
27.765
27.7638
27.7625
27.7612
27.7598
27.7584
27.7569
27.7553
27.7535
27.7517
27.7497
27.7473
27.7447
27.7415
27.7374
27.7305
27.7168
27.6843
27.5974
27.3549
26.6867
24.9576
21.1306
14.8814
</DataArray>
</CellData>
</Piece>
</RectilinearGrid>
</VTKFile>
