<?xml version="1.0"?>
<VTKFile type="RectilinearGrid">
<RectilinearGrid WholeExtent="0 100 0 0 0 0">
<Piece Extent="0 100 0 0 0 0">
<Coordinates>
<DataArray type="Float32" format="ascii">
0
10
20
30
40
50
60
70
80
90
100
110
120
130
140
150
160
170
180
190
200
210
220
230
240
250
260
270
280
290
300
310
320
330
340
350
360
370
380
390
400
410
420
430
440
450
460
470
480
490
500
510
520
530
540
550
560
570
580
590
600
610
620
630
640
650
660
670
680
690
700
710
720
730
740
750
760
770
780
790
800
810
820
830
840
850
860
870
880
890
900
910
920
930
940
950
960
970
980
990
1000
</DataArray>
<DataArray type="Float32" format="ascii">
0
</DataArray>
<DataArray type="Float32" format="ascii">
0
</DataArray>
</Coordinates>
<CellData>
<DataArray Name="h" type="Float32" format="ascii">
15
15
15
15
15
15
15
15
15
15
15
15
15
15
15
15
15
15
15
15
15
15
15
15
15
15
15
15
14.9997
14.998
14.9916
14.9719
14.9252
14.8349
14.6889
14.4845
14.2288
13.9362
13.6245
13.3138
13.0253
12.7791
12.5906
12.4652
12.3954
12.3645
12.3543
12.3524
12.3528
12.3534
12.3538
12.3541
12.3542
12.3542
12.354
12.3536
12.3527
12.3503
12.3419
12.3139
12.229
12.0096
11.5702
10.9717
10.4601
10.1731
10.0544
10.0145
10.0033
10.0006
10.0001
10
10
10
10
10
10
10
10
10
10
10
10
10
10
10
10
10
10
10
10
10
10
10
10
10
10
10
10
10
</DataArray>
<DataArray Name="hu" type="Float32" format="ascii">
0
0
0
0
0
0
0
0
0
0
0
0
0
0
0
0
0
0
0
0
0
0
0
0
0
7.52102e-08
2.96146e-05
0.000489889
0.00413443
0.0238834
0.10234
0.339724
0.903442
1.98437
3.71025
6.08123
8.97267
12.1841
15.4895
18.668
21.519
23.8776
25.6391
26.7906
27.4236
27.7014
27.7897
27.8027
27.7948
27.784
27.7736
27.7637
27.7542
27.7447
27.7347
27.7232
27.7061
27.6677
27.5496
27.1654
26.0154
23.1045
17.5196
10.4042
4.74175
1.74219
0.541217
0.143922
0.0323469
0.00599067
0.00088215
9.69345e-05
5.88657e-06
2.47652e-08
1.0302e-11
0
0
0
0
0
0
0
0
0
0
0
0
0
0
0
0
0
0
0
0
0
0
0
0
0
</DataArray>
</CellData>
</Piece>
</RectilinearGrid>
</VTKFile>
