<?xml version="1.0"?>
<VTKFile type="RectilinearGrid">
<RectilinearGrid WholeExtent="0 100 0 0 0 0">
<Piece Extent="0 100 0 0 0 0">
<Coordinates>
<DataArray type="Float32" format="ascii">
0
10
20
30
40
50
60
70
80
90
100
110
120
130
140
150
160
170
180
190
200
210
220
230
240
250
260
270
280
290
300
310
320
330
340
350
360
370
380
390
400
410
420
430
440
450
460
470
480
490
500
510
520
530
540
550
560
570
580
590
600
610
620
630
640
650
660
670
680
690
700
710
720
730
740
750
760
770
780
790
800
810
820
830
840
850
860
870
880
890
900
910
920
930
940
950
960
970
980
990
1000
</DataArray>
<DataArray type="Float32" format="ascii">
0
</DataArray>
<DataArray type="Float32" format="ascii">
0
</DataArray>
</Coordinates>
<CellData>
<DataArray Name="h" type="Float32" format="ascii">
15
15
15
15
14.9999
14.9996
14.9986
14.996
14.9898
14.9771
14.954
14.916
14.8596
14.7825
14.6841
14.5659
14.43
14.2796
14.1179
13.9481
13.7735
13.5971
13.4221
13.2518
13.0894
12.9384
12.8021
12.6835
12.5848
12.5069
12.4493
12.4096
12.3845
12.37
12.3627
12.3594
12.3583
12.3581
12.3583
12.3586
12.3589
12.3591
12.3593
12.3595
12.3596
12.3597
12.3598
12.3599
12.36
12.36
12.3601
12.3601
12.3601
12.3601
12.3601
12.3601
12.3601
12.36
12.36
12.36
12.3599
12.3598
12.3598
12.3597
12.3596
12.3595
12.3593
12.3592
12.359
12.3588
12.3586
12.3583
12.358
12.3576
12.357
12.3557
12.3524
12.3434
12.3177
12.2467
12.067
11.6908
11.1292
10.5932
10.2566
10.0983
10.0349
10.0117
10.0037
10.0011
10.0003
10.0001
10
10
10
10
10
10
10
10
</DataArray>
<DataArray Name="hu" type="Float32" format="ascii">
4.47314e-09
5.9709e-06
4.16281e-05
0.000276586
0.00131988
0.00511458
0.0169587
0.0488157
0.123389
0.27682
0.556686
1.01383
1.69032
2.60885
3.76857
5.14775
6.71062
8.41464
10.2161
12.0731
13.9469
15.8022
17.6059
19.3268
20.9356
22.4041
23.7071
24.8239
25.7418
26.4586
26.9854
27.3459
27.573
27.703
27.7693
27.7983
27.8079
27.8087
27.8062
27.8028
27.7995
27.7965
27.7938
27.7914
27.7892
27.7871
27.7852
27.7834
27.7817
27.78
27.7785
27.777
27.7755
27.774
27.7726
27.7712
27.7697
27.7682
27.7667
27.7651
27.7635
27.7618
27.76
27.7582
27.7563
27.7543
27.7521
27.7499
27.7474
27.7446
27.7415
27.7379
27.7335
27.7277
27.7189
27.701
27.656
27.5318
27.1824
26.2247
23.8346
18.9989
12.2099
6.16969
2.59843
0.982011
0.346813
0.115758
0.0364043
0.0106945
0.00290657
0.00072362
0.000162019
3.18152e-05
4.71246e-06
3.55319e-08
2.43678e-10
5.97994e-13
3.7238e-15
7.48888e-18
</DataArray>
</CellData>
</Piece>
</RectilinearGrid>
</VTKFile>
