<?xml version="1.0"?>
<VTKFile type="RectilinearGrid">
<RectilinearGrid WholeExtent="0 100 0 0 0 0">
<Piece Extent="0 100 0 0 0 0">
<Coordinates>
<DataArray type="Float32" format="ascii">
0
10
20
30
40
50
60
70
80
90
100
110
120
130
140
150
160
170
180
190
200
210
220
230
240
250
260
270
280
290
300
310
320
330
340
350
360
370
380
390
400
410
420
430
440
450
460
470
480
490
500
510
520
530
540
550
560
570
580
590
600
610
620
630
640
650
660
670
680
690
700
710
720
730
740
750
760
770
780
790
800
810
820
830
840
850
860
870
880
890
900
910
920
930
940
950
960
970
980
990
1000
</DataArray>
<DataArray type="Float32" format="ascii">
0
</DataArray>
<DataArray type="Float32" format="ascii">
0
</DataArray>
</Coordinates>
<CellData>
<DataArray Name="h" type="Float32" format="ascii">
14.9979
14.9946
14.9877
14.9746
14.952
14.9168
14.8661
14.7984
14.7132
14.6115
14.4948
14.3654
14.2257
14.078
13.9247
13.7679
13.6099
13.4529
13.2991
13.1508
13.0104
12.8804
12.7631
12.6607
12.5746
12.5054
12.4528
12.4151
12.39
12.3745
12.3658
12.3613
12.3594
12.3588
12.3588
12.359
12.3592
12.3595
12.3597
12.3598
12.36
12.3601
12.3602
12.3603
12.3604
12.3605
12.3605
12.3606
12.3606
12.3607
12.3607
12.3607
12.3607
12.3607
12.3607
12.3607
12.3607
12.3606
12.3606
12.3606
12.3605
12.3605
12.3604
12.3604
12.3603
12.3602
12.3601
12.36
12.3599
12.3598
12.3597
12.3596
12.3595
12.3593
12.3592
12.359
12.3588
12.3585
12.3582
12.3577
12.3568
12.3548
12.3494
12.3344
12.2927
12.1817
11.921
11.4469
10.8675
10.4154
10.1703
10.0638
10.0226
10.0076
10.0025
10.0007
10.0002
10.0001
10
10
</DataArray>
<DataArray Name="hu" type="Float32" format="ascii">
0.0255857
0.0652231
0.149133
0.308288
0.580737
1.00515
1.6126
2.41981
3.42665
4.61801
5.96828
7.44641
9.01982
10.657
12.3288
14.0083
15.6711
17.2942
18.8559
20.3353
21.7119
22.9665
24.0816
25.0431
25.8424
26.4785
26.9592
27.3015
27.529
27.6688
27.7473
27.7868
27.8036
27.8087
27.8084
27.8062
27.8033
27.8006
27.7981
27.7958
27.7938
27.792
27.7903
27.7887
27.7873
27.7859
27.7846
27.7834
27.7823
27.7811
27.78
27.7789
27.7779
27.7768
27.7757
27.7747
27.7736
27.7725
27.7715
27.7704
27.7693
27.7682
27.7671
27.766
27.7649
27.7636
27.7623
27.7609
27.7593
27.7576
27.7558
27.7539
27.7517
27.7494
27.7469
27.7441
27.7409
27.7373
27.7329
27.7266
27.7146
27.6869
27.6141
27.4108
26.8448
25.3523
21.9297
15.9939
9.21119
4.26279
1.71195
0.635659
0.224455
0.0758083
0.0243951
0.00741924
0.00211373
0.000558239
0.000133828
2.8876e-05
</DataArray>
</CellData>
</Piece>
</RectilinearGrid>
</VTKFile>
