<?xml version="1.0"?>
<VTKFile type="RectilinearGrid">
<RectilinearGrid WholeExtent="0 100 0 0 0 0">
<Piece Extent="0 100 0 0 0 0">
<Coordinates>
<DataArray type="Float32" format="ascii">
0
10
20
30
40
50
60
70
80
90
100
110
120
130
140
150
160
170
180
190
200
210
220
230
240
250
260
270
280
290
300
310
320
330
340
350
360
370
380
390
400
410
420
430
440
450
460
470
480
490
500
510
520
530
540
550
560
570
580
590
600
610
620
630
640
650
660
670
680
690
700
710
720
730
740
750
760
770
780
790
800
810
820
830
840
850
860
870
880
890
900
910
920
930
940
950
960
970
980
990
1000
</DataArray>
<DataArray type="Float32" format="ascii">
0
</DataArray>
<DataArray type="Float32" format="ascii">
0
</DataArray>
</Coordinates>
<CellData>
<DataArray Name="h" type="Float32" format="ascii">
15
15
15
15
15
15
15
15
15
15
15
15
15
15
15
15
15
15
15
15
14.9999
14.9992
14.9969
14.9898
14.972
14.9348
14.8686
14.7662
14.6248
14.4469
14.2383
14.0073
13.7628
13.5142
13.2714
13.0443
12.8426
12.6747
12.546
12.4568
12.4021
12.3732
12.3605
12.3561
12.3553
12.3555
12.356
12.3564
12.3568
12.357
12.3572
12.3573
12.3574
12.3574
12.3574
12.3573
12.3572
12.357
12.3568
12.3565
12.3561
12.3555
12.3543
12.3513
12.342
12.3139
12.2338
12.0316
11.6216
11.0421
10.5215
10.2122
10.0745
10.0233
10.0065
10.0016
10.0003
10.0001
10
10
10
10
10
10
10
10
10
10
10
10
10
10
10
10
10
10
10
10
10
10
</DataArray>
<DataArray Name="hu" type="Float32" format="ascii">
0
0
0
0
0
0
0
0
0
0
0
0
0
0
0
0
5.98818e-12
2.49145e-07
2.22127e-05
0.000255122
0.00175726
0.00914634
0.0373673
0.123629
0.33932
0.788509
1.58277
2.80121
4.46094
6.51511
8.87254
11.422
14.0493
16.6461
19.1121
21.3563
23.2996
24.8824
26.0759
26.8929
27.3892
27.6497
27.7635
27.8014
27.8073
27.8029
27.7963
27.79
27.7844
27.7794
27.7748
27.7704
27.7662
27.7621
27.7579
27.7535
27.7489
27.7439
27.7384
27.7322
27.7249
27.7151
27.6975
27.6537
27.5255
27.1427
26.0619
23.3776
18.1431
11.2044
5.39653
2.14143
0.743196
0.231334
0.0645105
0.0159089
0.00340615
0.000617155
9.13067e-05
1.05503e-05
1.05442e-07
1.98583e-10
3.19797e-13
1.32291e-16
0
0
0
0
0
0
0
0
0
0
0
0
0
0
0
0
</DataArray>
</CellData>
</Piece>
</RectilinearGrid>
</VTKFile>
