<?xml version="1.0"?>
<VTKFile type="RectilinearGrid">
<RectilinearGrid WholeExtent="0 100 0 0 0 0">
<Piece Extent="0 100 0 0 0 0">
<Coordinates>
<DataArray type="Float32" format="ascii">
0
10
20
30
40
50
60
70
80
90
100
110
120
130
140
150
160
170
180
190
200
210
220
230
240
250
260
270
280
290
300
310
320
330
340
350
360
370
380
390
400
410
420
430
440
450
460
470
480
490
500
510
520
530
540
550
560
570
580
590
600
610
620
630
640
650
660
670
680
690
700
710
720
730
740
750
760
770
780
790
800
810
820
830
840
850
860
870
880
890
900
910
920
930
940
950
960
970
980
990
1000
</DataArray>
<DataArray type="Float32" format="ascii">
0
</DataArray>
<DataArray type="Float32" format="ascii">
0
</DataArray>
</Coordinates>
<CellData>
<DataArray Name="h" type="Float32" format="ascii">
15
14.9998
14.9994
14.9983
14.9953
14.9887
14.9757
14.9528
14.9162
14.8627
14.7905
14.6991
14.5896
14.4639
14.3247
14.1746
14.0165
13.853
13.6868
13.5205
13.3566
13.1979
13.0472
12.9075
12.7814
12.6715
12.5795
12.5062
12.4512
12.4125
12.3874
12.3723
12.3642
12.3603
12.3588
12.3584
12.3585
12.3588
12.359
12.3593
12.3595
12.3597
12.3598
12.36
12.3601
12.3602
12.3602
12.3603
12.3603
12.3604
12.3604
12.3604
12.3604
12.3604
12.3604
12.3604
12.3604
12.3604
12.3603
12.3603
12.3603
12.3602
12.3601
12.3601
12.36
12.3599
12.3598
12.3596
12.3595
12.3594
12.3592
12.3591
12.3589
12.3587
12.3584
12.3581
12.3577
12.3569
12.3554
12.3512
12.3396
12.3068
12.218
12.0007
11.5744
10.997
10.4992
10.2097
10.0794
10.0282
10.0095
10.003
10.0009
10.0003
10.0001
10
10
10
10
10
</DataArray>
<DataArray Name="hu" type="Float32" format="ascii">
0.000475387
0.00196796
0.00692466
0.0212171
0.0572205
0.137043
0.294239
0.571317
1.01246
1.65357
2.51394
3.59301
4.87267
6.32279
7.90716
9.58823
11.3299
13.0989
14.8644
16.5982
18.2739
19.8662
21.3507
22.7044
23.9064
24.9398
25.7942
26.4681
26.9708
27.3221
27.55
27.6855
27.7584
27.7928
27.8061
27.809
27.8076
27.8047
27.8016
27.7987
27.7962
27.7938
27.7917
27.7898
27.788
27.7864
27.7848
27.7833
27.7819
27.7806
27.7793
27.778
27.7767
27.7755
27.7743
27.7731
27.7718
27.7705
27.7693
27.768
27.7666
27.7653
27.7639
27.7625
27.761
27.7595
27.7578
27.7561
27.7542
27.7521
27.7498
27.7473
27.7445
27.7413
27.7376
27.733
27.727
27.7169
27.6945
27.6373
27.4791
27.0356
25.8393
22.9645
17.553
10.682
5.15525
2.11598
0.791888
0.279602
0.093915
0.0299004
0.00895102
0.00249808
0.000641825
0.000147937
3.08272e-05
4.68797e-06
3.58292e-08
2.70801e-10
</DataArray>
</CellData>
</Piece>
</RectilinearGrid>
</VTKFile>
