<?xml version="1.0"?>
<VTKFile type="RectilinearGrid">
<RectilinearGrid WholeExtent="0 100 0 0 0 0">
<Piece Extent="0 100 0 0 0 0">
<Coordinates>
<DataArray type="Float32" format="ascii">
0
10
20
30
40
50
60
70
80
90
100
110
120
130
140
150
160
170
180
190
200
210
220
230
240
250
260
270
280
290
300
310
320
330
340
350
360
370
380
390
400
410
420
430
440
450
460
470
480
490
500
510
520
530
540
550
560
570
580
590
600
610
620
630
640
650
660
670
680
690
700
710
720
730
740
750
760
770
780
790
800
810
820
830
840
850
860
870
880
890
900
910
920
930
940
950
960
970
980
990
1000
</DataArray>
<DataArray type="Float32" format="ascii">
0
</DataArray>
<DataArray type="Float32" format="ascii">
0
</DataArray>
</Coordinates>
<CellData>
<DataArray Name="h" type="Float32" format="ascii">
15
15
15
15
15
15
15
15
15
15
15
15
15
15
15
15
15
15
15
15
15
14.9998
14.999
14.9961
14.9874
14.966
14.9225
14.847
14.7326
14.5779
14.3863
14.165
13.9231
13.6703
13.4169
13.1737
12.9513
12.7598
12.6068
12.4956
12.4237
12.3834
12.3643
12.357
12.3551
12.3551
12.3556
12.3561
12.3565
12.3567
12.3569
12.357
12.3571
12.3571
12.3571
12.357
12.3569
12.3567
12.3565
12.3561
12.3556
12.3547
12.3525
12.3459
12.3257
12.2667
12.1106
11.7683
11.2222
10.6583
10.2825
10.1027
10.0329
10.0094
10.0024
10.0005
10.0001
10
10
10
10
10
10
10
10
10
10
10
10
10
10
10
10
10
10
10
10
10
10
10
</DataArray>
<DataArray Name="hu" type="Float32" format="ascii">
0
0
0
0
0
0
0
0
0
0
0
0
0
0
0
0
0
1.65777e-11
6.89719e-07
3.07746e-05
0.000339801
0.0023088
0.0117765
0.0471985
0.153072
0.411435
0.936116
1.84108
3.19729
5.00634
7.2047
9.68757
12.334
15.023
17.6408
20.0827
22.2555
24.0821
25.5124
26.5362
27.1912
27.5563
27.7278
27.7917
27.8068
27.8045
27.798
27.7912
27.785
27.7796
27.7746
27.7699
27.7654
27.7609
27.7563
27.7516
27.7465
27.741
27.7349
27.7278
27.7189
27.7046
27.6726
27.5814
27.3054
26.5047
24.4196
19.9879
13.311
6.8855
2.86845
1.02644
0.326858
0.0930396
0.0234037
0.005112
0.000950913
0.000144147
1.67881e-05
3.56575e-07
6.71804e-10
1.08368e-12
4.48542e-16
0
0
0
0
0
0
0
0
0
0
0
0
0
0
0
0
0
</DataArray>
</CellData>
</Piece>
</RectilinearGrid>
</VTKFile>
