<?xml version="1.0"?>
<VTKFile type="RectilinearGrid">
<RectilinearGrid WholeExtent="0 100 0 0 0 0">
<Piece Extent="0 100 0 0 0 0">
<Coordinates>
<DataArray type="Float32" format="ascii">
0
10
20
30
40
50
60
70
80
90
100
110
120
130
140
150
160
170
180
190
200
210
220
230
240
250
260
270
280
290
300
310
320
330
340
350
360
370
380
390
400
410
420
430
440
450
460
470
480
490
500
510
520
530
540
550
560
570
580
590
600
610
620
630
640
650
660
670
680
690
700
710
720
730
740
750
760
770
780
790
800
810
820
830
840
850
860
870
880
890
900
910
920
930
940
950
960
970
980
990
1000
</DataArray>
<DataArray type="Float32" format="ascii">
0
</DataArray>
<DataArray type="Float32" format="ascii">
0
</DataArray>
</Coordinates>
<CellData>
<DataArray Name="h" type="Float32" format="ascii">
12.9264
12.8307
12.7419
12.6588
12.5838
12.5188
12.4633
12.419
12.3858
12.3633
12.3505
12.3459
12.3464
12.3504
12.3548
12.3583
12.3608
12.3621
12.3615
12.3623
12.3613
12.3614
12.3612
12.3613
12.3612
12.3615
12.3614
12.3616
12.3615
12.3617
12.3616
12.3619
12.3616
12.3621
12.3615
12.3623
12.3616
12.3619
12.3621
12.362
12.3619
12.362
12.3621
12.3619
12.362
12.362
12.362
12.3618
12.3621
12.3619
12.3619
12.3619
12.362
12.3619
12.362
12.3617
12.3624
12.3616
12.362
12.3619
12.362
12.3616
12.3618
12.3619
12.3615
12.3618
12.3615
12.3619
12.3614
12.3619
12.3614
12.3618
12.3616
12.3615
12.3618
12.3613
12.3614
12.3615
12.3613
12.3612
12.3613
12.3614
12.3611
12.3611
12.3611
12.3611
12.3613
12.3607
12.3607
12.3612
12.3608
12.3593
12.3567
12.3592
12.3916
12.4301
12.3468
12.31
12.2966
12.1531
</DataArray>
<DataArray Name="hu" type="Float32" format="ascii">
22.597
23.516
24.3807
25.1542
25.8462
26.4547
26.9617
27.3661
27.6672
27.8691
27.9786
28.02
28.0057
27.9677
27.9212
27.8759
27.8491
27.8337
27.8137
27.8202
27.8073
27.8079
27.8052
27.8028
27.7995
27.801
27.7975
27.7978
27.7958
27.7961
27.7947
27.7953
27.7909
27.7965
27.7872
27.7982
27.7874
27.7898
27.7933
27.7892
27.7881
27.7887
27.7897
27.7875
27.7879
27.7872
27.7882
27.7855
27.7883
27.7859
27.786
27.7862
27.7853
27.7846
27.7855
27.7812
27.7889
27.779
27.7838
27.7829
27.7844
27.7778
27.7832
27.7826
27.7802
27.7817
27.7782
27.7838
27.7753
27.782
27.7758
27.7804
27.7756
27.7758
27.7797
27.7743
27.7751
27.7772
27.7743
27.7742
27.7739
27.7741
27.7707
27.7721
27.7724
27.767
27.7697
27.7678
27.7715
27.7661
27.7571
27.7835
27.7968
27.7614
27.4645
27.054
27.6298
27.4919
25.8296
24.5461
</DataArray>
</CellData>
</Piece>
</RectilinearGrid>
</VTKFile>
