<?xml version="1.0"?>
<VTKFile type="RectilinearGrid">
<RectilinearGrid WholeExtent="0 100 0 0 0 0">
<Piece Extent="0 100 0 0 0 0">
<Coordinates>
<DataArray type="Float32" format="ascii">
0
10
20
30
40
50
60
70
80
90
100
110
120
130
140
150
160
170
180
190
200
210
220
230
240
250
260
270
280
290
300
310
320
330
340
350
360
370
380
390
400
410
420
430
440
450
460
470
480
490
500
510
520
530
540
550
560
570
580
590
600
610
620
630
640
650
660
670
680
690
700
710
720
730
740
750
760
770
780
790
800
810
820
830
840
850
860
870
880
890
900
910
920
930
940
950
960
970
980
990
1000
</DataArray>
<DataArray type="Float32" format="ascii">
0
</DataArray>
<DataArray type="Float32" format="ascii">
0
</DataArray>
</Coordinates>
<CellData>
<DataArray Name="h" type="Float32" format="ascii">
13.2342
13.124
13.0175
12.9157
12.8199
12.7308
12.6497
12.5776
12.5155
12.4641
12.4238
12.3941
12.3741
12.3623
12.3567
12.3551
12.3557
12.357
12.3584
12.3593
12.36
12.3603
12.3606
12.3607
12.3609
12.361
12.3611
12.3612
12.3613
12.3614
12.3615
12.3615
12.3616
12.3616
12.3617
12.3616
12.3617
12.3618
12.3618
12.3618
12.3619
12.3619
12.3619
12.3619
12.3619
12.3619
12.3619
12.3619
12.3618
12.3619
12.3618
12.3618
12.3618
12.3618
12.3618
12.3619
12.3617
12.3618
12.3618
12.3618
12.3617
12.3618
12.3617
12.3616
12.3617
12.3616
12.3616
12.3615
12.3615
12.3615
12.3615
12.3614
12.3614
12.3615
12.3613
12.3613
12.3613
12.3612
12.3612
12.3611
12.3611
12.361
12.361
12.3609
12.3608
12.3608
12.3608
12.3608
12.3606
12.3604
12.3606
12.3606
12.3598
12.3586
12.3594
12.3742
12.403
12.4015
12.4332
12.5531
</DataArray>
<DataArray Name="hu" type="Float32" format="ascii">
19.5678
20.671
21.718
22.7062
23.6279
24.4724
25.2321
25.8996
26.4677
26.9326
27.2947
27.557
27.7311
27.8303
27.8735
27.8818
27.8701
27.8512
27.8366
27.8224
27.815
27.8099
27.8066
27.8045
27.8032
27.8014
27.8003
27.7989
27.798
27.7969
27.796
27.7948
27.7948
27.7929
27.7939
27.7912
27.7917
27.7915
27.79
27.7896
27.7892
27.7888
27.788
27.7878
27.7873
27.7871
27.7864
27.7866
27.7859
27.7857
27.7855
27.785
27.7847
27.7843
27.7836
27.7841
27.782
27.7827
27.7821
27.7814
27.7802
27.7811
27.7804
27.7797
27.7797
27.7793
27.7795
27.7779
27.7787
27.7771
27.7774
27.7762
27.7759
27.7754
27.7739
27.774
27.7738
27.7727
27.7722
27.7718
27.7715
27.7703
27.7697
27.7688
27.7679
27.7676
27.7652
27.7644
27.764
27.7634
27.7625
27.7589
27.7648
27.7786
27.7799
27.6813
27.5218
27.8489
28.6391
29.9116
</DataArray>
</CellData>
</Piece>
</RectilinearGrid>
</VTKFile>
