<?xml version="1.0"?>
<VTKFile type="RectilinearGrid">
<RectilinearGrid WholeExtent="0 100 0 0 0 0">
<Piece Extent="0 100 0 0 0 0">
<Coordinates>
<DataArray type="Float32" format="ascii">
0
10
20
30
40
50
60
70
80
90
100
110
120
130
140
150
160
170
180
190
200
210
220
230
240
250
260
270
280
290
300
310
320
330
340
350
360
370
380
390
400
410
420
430
440
450
460
470
480
490
500
510
520
530
540
550
560
570
580
590
600
610
620
630
640
650
660
670
680
690
700
710
720
730
740
750
760
770
780
790
800
810
820
830
840
850
860
870
880
890
900
910
920
930
940
950
960
970
980
990
1000
</DataArray>
<DataArray type="Float32" format="ascii">
0
</DataArray>
<DataArray type="Float32" format="ascii">
0
</DataArray>
</Coordinates>
<CellData>
<DataArray Name="h" type="Float32" format="ascii">
15
15
15
15
15
15
15
15
15
15
15
15
15
15
15
15
15
15
15
15
15
15
15
15
15
15
15
14.9998
14.9986
14.9936
14.9783
14.9404
14.8647
14.7383
14.5561
14.3225
14.0489
13.751
13.4464
13.1542
12.8934
12.6807
12.5264
12.43
12.38
12.3596
12.3536
12.3528
12.3533
12.3539
12.3543
12.3546
12.3547
12.3547
12.3545
12.3542
12.3537
12.3524
12.3484
12.3352
12.2927
12.1714
11.8829
11.3718
10.7772
10.3406
10.1215
10.0367
10.0095
10.0021
10.0004
10.0001
10
10
10
10
10
10
10
10
10
10
10
10
10
10
10
10
10
10
10
10
10
10
10
10
10
10
10
10
</DataArray>
<DataArray Name="hu" type="Float32" format="ascii">
0
0
0
0
0
0
0
0
0
0
0
0
0
0
0
0
0
0
0
0
0
0
0
0
2.55279e-08
2.03228e-05
0.00034318
0.00296421
0.0175401
0.0771171
0.26322
0.720591
1.62899
3.12959
5.25633
7.9229
10.96
14.1636
17.3276
20.2602
22.7946
24.8052
26.2341
27.1146
27.5663
27.7486
27.7993
27.8021
27.7932
27.7831
27.7737
27.7648
27.7563
27.7477
27.7388
27.7289
27.7164
27.6943
27.6366
27.4527
26.873
25.2403
21.4598
15.1027
8.20749
3.47757
1.21686
0.365093
0.094257
0.0206025
0.00371399
0.000530118
5.51119e-05
4.20414e-06
6.86793e-09
2.85506e-12
0
0
0
0
0
0
0
0
0
0
0
0
0
0
0
0
0
0
0
0
0
0
0
0
</DataArray>
</CellData>
</Piece>
</RectilinearGrid>
</VTKFile>
