<?xml version="1.0"?>
<VTKFile type="RectilinearGrid">
<RectilinearGrid WholeExtent="0 100 0 0 0 0">
<Piece Extent="0 100 0 0 0 0">
<Coordinates>
<DataArray type="Float32" format="ascii">
0
10
20
30
40
50
60
70
80
90
100
110
120
130
140
150
160
170
180
190
200
210
220
230
240
250
260
270
280
290
300
310
320
330
340
350
360
370
380
390
400
410
420
430
440
450
460
470
480
490
500
510
520
530
540
550
560
570
580
590
600
610
620
630
640
650
660
670
680
690
700
710
720
730
740
750
760
770
780
790
800
810
820
830
840
850
860
870
880
890
900
910
920
930
940
950
960
970
980
990
1000
</DataArray>
<DataArray type="Float32" format="ascii">
0
</DataArray>
<DataArray type="Float32" format="ascii">
0
</DataArray>
</Coordinates>
<CellData>
<DataArray Name="h" type="Float32" format="ascii">
12.688
12.6107
12.538
12.4802
12.4292
12.3865
12.3594
12.3413
12.3337
12.3344
12.3409
12.3482
12.3575
12.3616
12.3655
12.3666
12.3649
12.3638
12.3659
12.3601
12.3648
12.3611
12.3622
12.3617
12.3621
12.3611
12.3623
12.3613
12.3623
12.3613
12.3623
12.3615
12.3628
12.3606
12.3638
12.3595
12.3644
12.3612
12.3614
12.3628
12.3622
12.3619
12.3618
12.3625
12.3619
12.3621
12.3617
12.3627
12.3612
12.3627
12.3618
12.3621
12.362
12.3623
12.3616
12.3631
12.3601
12.3643
12.3607
12.362
12.3618
12.363
12.3608
12.3616
12.3627
12.3611
12.3626
12.3605
12.3635
12.3601
12.3631
12.3607
12.3625
12.3616
12.3607
12.3628
12.3612
12.3609
12.3619
12.3615
12.3613
12.3612
12.3618
12.361
12.3615
12.362
12.3599
12.3615
12.3615
12.3616
12.3579
12.3523
12.3655
12.4378
12.4888
12.261
12.3379
12.5368
12.504
12.5531
</DataArray>
<DataArray Name="hu" type="Float32" format="ascii">
24.8503
25.5953
26.2152
26.8307
27.2884
27.63
27.9079
28.0646
28.1371
28.134
28.0886
28.0029
27.9421
27.8748
27.8496
27.8472
27.8276
27.8303
27.8628
27.7935
27.8518
27.8039
27.8112
27.8047
27.806
27.7905
27.8039
27.7928
27.7991
27.7911
27.797
27.7891
27.8043
27.7746
27.8166
27.7586
27.8221
27.7802
27.7795
27.8003
27.7917
27.7859
27.7851
27.7944
27.7859
27.7892
27.785
27.7946
27.7779
27.7943
27.7845
27.7848
27.7871
27.7865
27.7812
27.7956
27.7609
27.813
27.7661
27.7866
27.7796
27.8006
27.7657
27.7845
27.7903
27.7742
27.7912
27.7629
27.8033
27.7591
27.7967
27.762
27.7913
27.7768
27.7673
27.794
27.772
27.7698
27.7865
27.7755
27.7718
27.7717
27.7843
27.7695
27.7657
27.7782
27.7672
27.7876
27.7519
27.7635
27.8264
27.8021
27.755
27.1135
26.6046
28.7367
28.3489
27.1162
30.0706
29.7507
</DataArray>
</CellData>
</Piece>
</RectilinearGrid>
</VTKFile>
