<?xml version="1.0"?>
<VTKFile type="RectilinearGrid">
<RectilinearGrid WholeExtent="0 100 0 0 0 0">
<Piece Extent="0 100 0 0 0 0">
<Coordinates>
<DataArray type="Float32" format="ascii">
0
10
20
30
40
50
60
70
80
90
100
110
120
130
140
150
160
170
180
190
200
210
220
230
240
250
260
270
280
290
300
310
320
330
340
350
360
370
380
390
400
410
420
430
440
450
460
470
480
490
500
510
520
530
540
550
560
570
580
590
600
610
620
630
640
650
660
670
680
690
700
710
720
730
740
750
760
770
780
790
800
810
820
830
840
850
860
870
880
890
900
910
920
930
940
950
960
970
980
990
1000
</DataArray>
<DataArray type="Float32" format="ascii">
0
</DataArray>
<DataArray type="Float32" format="ascii">
0
</DataArray>
</Coordinates>
<CellData>
<DataArray Name="h" type="Float32" format="ascii">
15
15
15
15
15
15
15
15
15
15
15
15
15
15
15
15
14.9998
14.9991
14.9968
14.9903
14.9749
14.9438
14.8896
14.806
14.6903
14.5432
14.3685
14.1717
13.9592
13.7376
13.5139
13.2949
13.0877
12.8994
12.7366
12.6043
12.5047
12.4363
12.3943
12.3716
12.3611
12.3572
12.3563
12.3564
12.3568
12.3572
12.3575
12.3578
12.358
12.3581
12.3583
12.3583
12.3584
12.3584
12.3584
12.3584
12.3583
12.3582
12.3581
12.358
12.3578
12.3575
12.3573
12.3569
12.3564
12.3554
12.3532
12.3469
12.3284
12.2753
12.1348
11.82
11.2957
10.7242
10.3234
10.1232
10.042
10.013
10.0037
10.0009
10.0002
10
10
10
10
10
10
10
10
10
10
10
10
10
10
10
10
10
10
10
</DataArray>
<DataArray Name="hu" type="Float32" format="ascii">
0
0
0
0
0
0
0
0
0
0
0
3.3044e-14
1.37497e-09
5.61815e-06
4.6515e-05
0.000405194
0.00233744
0.0105108
0.0384841
0.117392
0.304016
0.679356
1.33161
2.32856
3.6951
5.40835
7.40864
9.61667
11.9476
14.3191
16.6546
18.8831
20.9393
22.7647
24.3108
25.5461
26.4641
27.0881
27.4691
27.6736
27.7671
27.8011
27.8083
27.8056
27.8005
27.7952
27.7905
27.7864
27.7826
27.7791
27.7758
27.7727
27.7696
27.7665
27.7635
27.7605
27.7573
27.754
27.7506
27.7469
27.7429
27.7384
27.7332
27.7272
27.7189
27.7051
27.674
27.5877
27.3347
26.614
24.7345
20.6401
14.1807
7.61135
3.2949
1.23378
0.417748
0.129385
0.036436
0.00920853
0.0020539
0.000397793
6.47729e-05
6.37683e-06
1.0636e-07
2.14078e-10
4.02359e-13
6.42332e-16
2.64911e-19
0
0
0
0
0
0
0
0
0
0
0
</DataArray>
</CellData>
</Piece>
</RectilinearGrid>
</VTKFile>
