<?xml version="1.0"?>
<VTKFile type="RectilinearGrid">
<RectilinearGrid WholeExtent="0 100 0 0 0 0">
<Piece Extent="0 100 0 0 0 0">
<Coordinates>
<DataArray type="Float32" format="ascii">
0
10
20
30
40
50
60
70
80
90
100
110
120
130
140
150
160
170
180
190
200
210
220
230
240
250
260
270
280
290
300
310
320
330
340
350
360
370
380
390
400
410
420
430
440
450
460
470
480
490
500
510
520
530
540
550
560
570
580
590
600
610
620
630
640
650
660
670
680
690
700
710
720
730
740
750
760
770
780
790
800
810
820
830
840
850
860
870
880
890
900
910
920
930
940
950
960
970
980
990
1000
</DataArray>
<DataArray type="Float32" format="ascii">
0
</DataArray>
<DataArray type="Float32" format="ascii">
0
</DataArray>
</Coordinates>
<CellData>
<DataArray Name="h" type="Float32" format="ascii">
15
15
15
15
15
15
15
15
15
15
15
15
15
15
15
15
15
15
15
15
15
15
14.9997
14.9987
14.995
14.9842
14.9584
14.9072
14.8206
14.6927
14.5231
14.3169
14.0825
13.8297
13.5695
13.313
13.0718
12.8574
12.6795
12.5444
12.4524
12.3978
12.3701
12.3587
12.3552
12.3548
12.3552
12.3557
12.3561
12.3564
12.3566
12.3568
12.3568
12.3569
12.3568
12.3567
12.3566
12.3564
12.3561
12.3556
12.3549
12.3534
12.3488
12.3348
12.2928
12.1765
11.9021
11.4098
10.8219
10.3755
10.1421
10.0469
10.0137
10.0035
10.0008
10.0001
10
10
10
10
10
10
10
10
10
10
10
10
10
10
10
10
10
10
10
10
10
10
10
10
</DataArray>
<DataArray Name="hu" type="Float32" format="ascii">
0
0
0
0
0
0
0
0
0
0
0
0
0
0
0
0
0
0
4.69703e-11
1.95417e-06
4.53142e-05
0.000460158
0.00307388
0.0154037
0.0604629
0.191782
0.503782
1.12014
2.1548
3.66679
5.63881
7.98879
10.5977
13.3349
16.0725
18.6914
21.0833
23.1542
24.8334
26.0862
26.9279
27.4241
27.6731
27.7746
27.8041
27.8058
27.7997
27.7924
27.7858
27.7798
27.7744
27.7693
27.7645
27.7596
27.7547
27.7495
27.7439
27.7377
27.7309
27.7226
27.7107
27.6871
27.6238
27.432
26.8594
25.2963
21.6974
15.5535
8.70269
3.84258
1.42635
0.466106
0.135678
0.0348847
0.00778308
0.00147281
0.000231841
2.87099e-05
1.23394e-06
2.32572e-09
3.7582e-12
1.5565e-15
0
0
0
0
0
0
0
0
0
0
0
0
0
0
0
0
0
0
</DataArray>
</CellData>
</Piece>
</RectilinearGrid>
</VTKFile>
