<?xml version="1.0"?>
<VTKFile type="RectilinearGrid">
<RectilinearGrid WholeExtent="0 100 0 0 0 0">
<Piece Extent="0 100 0 0 0 0">
<Coordinates>
<DataArray type="Float32" format="ascii">
0
10
20
30
40
50
60
70
80
90
100
110
120
130
140
150
160
170
180
190
200
210
220
230
240
250
260
270
280
290
300
310
320
330
340
350
360
370
380
390
400
410
420
430
440
450
460
470
480
490
500
510
520
530
540
550
560
570
580
590
600
610
620
630
640
650
660
670
680
690
700
710
720
730
740
750
760
770
780
790
800
810
820
830
840
850
860
870
880
890
900
910
920
930
940
950
960
970
980
990
1000
</DataArray>
<DataArray type="Float32" format="ascii">
0
</DataArray>
<DataArray type="Float32" format="ascii">
0
</DataArray>
</Coordinates>
<CellData>
<DataArray Name="h" type="Float32" format="ascii">
14.595
14.4926
14.381
14.2618
14.1365
14.0066
13.8735
13.7386
13.6032
13.4685
13.3359
13.2069
13.0828
12.9652
12.8556
12.7557
12.6668
12.59
12.5259
12.4744
12.4351
12.4065
12.3869
12.3743
12.3668
12.3626
12.3606
12.3598
12.3596
12.3596
12.3598
12.36
12.3602
12.3604
12.3605
12.3606
12.3608
12.3608
12.3609
12.361
12.3611
12.3611
12.3612
12.3612
12.3612
12.3613
12.3613
12.3613
12.3613
12.3613
12.3613
12.3613
12.3613
12.3613
12.3613
12.3613
12.3613
12.3612
12.3612
12.3612
12.3612
12.3611
12.3611
12.3611
12.361
12.361
12.361
12.3609
12.3609
12.3608
12.3608
12.3607
12.3606
12.3605
12.3605
12.3604
12.3603
12.3602
12.3601
12.36
12.3599
12.3598
12.3596
12.3595
12.3593
12.3591
12.3589
12.3586
12.3581
12.3573
12.3553
12.3502
12.336
12.2964
12.1909
11.9409
11.4777
10.8982
10.436
10.1811
</DataArray>
<DataArray Name="hu" type="Float32" format="ascii">
4.80791
5.99319
7.27007
8.61706
10.0137
11.4413
12.8826
14.3221
15.7454
17.1388
18.4895
19.7844
21.0111
22.1569
23.2096
24.158
24.9925
25.7066
26.2977
26.7684
27.1268
27.3863
27.5636
27.6774
27.7452
27.7822
27.8002
27.8073
27.8089
27.8079
27.806
27.8038
27.8017
27.7997
27.798
27.7964
27.795
27.7936
27.7924
27.7913
27.7902
27.7892
27.7883
27.7874
27.7866
27.7858
27.785
27.7842
27.7835
27.7828
27.7821
27.7814
27.7808
27.7802
27.7796
27.779
27.7784
27.7779
27.7773
27.7767
27.776
27.7754
27.7746
27.7739
27.7731
27.7722
27.7714
27.7705
27.7696
27.7687
27.7678
27.7668
27.7659
27.7649
27.7639
27.7627
27.7615
27.7601
27.7586
27.757
27.7552
27.7533
27.7512
27.7491
27.7468
27.7441
27.741
27.7371
27.7312
27.7199
27.6932
27.6234
27.4301
26.8936
25.4744
22.1846
16.3671
9.55761
4.48083
1.82365
</DataArray>
</CellData>
</Piece>
</RectilinearGrid>
</VTKFile>
