<?xml version="1.0"?>
<VTKFile type="RectilinearGrid">
<RectilinearGrid WholeExtent="0 100 0 0 0 0">
<Piece Extent="0 100 0 0 0 0">
<Coordinates>
<DataArray type="Float32" format="ascii">
0
10
20
30
40
50
60
70
80
90
100
110
120
130
140
150
160
170
180
190
200
210
220
230
240
250
260
270
280
290
300
310
320
330
340
350
360
370
380
390
400
410
420
430
440
450
460
470
480
490
500
510
520
530
540
550
560
570
580
590
600
610
620
630
640
650
660
670
680
690
700
710
720
730
740
750
760
770
780
790
800
810
820
830
840
850
860
870
880
890
900
910
920
930
940
950
960
970
980
990
1000
</DataArray>
<DataArray type="Float32" format="ascii">
0
</DataArray>
<DataArray type="Float32" format="ascii">
0
</DataArray>
</Coordinates>
<CellData>
<DataArray Name="h" type="Float32" format="ascii">
15
15
15
15
15
15
15
15
15
15
15
15
15
15
15
15
15
14.9999
14.9997
14.9985
14.9949
14.9849
14.9626
14.9198
14.8486
14.744
14.6047
14.4337
14.2364
14.0197
13.791
13.558
13.3286
13.1108
12.9128
12.7419
12.6038
12.5011
12.4319
12.3905
12.369
12.3597
12.3565
12.3559
12.3562
12.3566
12.357
12.3573
12.3576
12.3577
12.3579
12.358
12.358
12.358
12.358
12.358
12.3579
12.3578
12.3577
12.3575
12.3572
12.3569
12.3565
12.3559
12.3547
12.3517
12.3427
12.3161
12.2407
12.0493
11.6546
11.0818
10.5521
10.2295
10.0828
10.0268
10.0079
10.0021
10.0005
10.0001
10
10
10
10
10
10
10
10
10
10
10
10
10
10
10
10
10
10
10
10
</DataArray>
<DataArray Name="hu" type="Float32" format="ascii">
0
0
0
0
0
0
0
0
0
0
0
0
0
2.68985e-13
1.11921e-08
6.91857e-06
9.52827e-05
0.000743633
0.00410784
0.0177548
0.0624346
0.18264
0.452875
0.968986
1.82143
3.0637
4.69524
6.66618
8.8953
11.2887
13.7523
16.1973
18.5415
20.7094
22.6335
24.2582
25.5473
26.4938
27.1251
27.4999
27.6933
27.7768
27.8041
27.8078
27.8036
27.7979
27.7924
27.7875
27.7831
27.7791
27.7754
27.7719
27.7684
27.765
27.7615
27.758
27.7544
27.7506
27.7466
27.7422
27.7372
27.7316
27.7247
27.7152
27.698
27.6551
27.5318
27.1691
26.1514
23.6076
18.5518
11.6613
5.72583
2.31914
0.825833
0.266291
0.0779179
0.0204712
0.00475128
0.000954208
0.000162003
2.31833e-05
1.2909e-06
2.59931e-09
4.8895e-12
7.8334e-15
3.23464e-18
0
0
0
0
0
0
0
0
0
0
0
0
0
</DataArray>
</CellData>
</Piece>
</RectilinearGrid>
</VTKFile>
