<?xml version="1.0"?>
<VTKFile type="RectilinearGrid">
<RectilinearGrid WholeExtent="0 100 0 0 0 0">
<Piece Extent="0 100 0 0 0 0">
<Coordinates>
<DataArray type="Float32" format="ascii">
0
10
20
30
40
50
60
70
80
90
100
110
120
130
140
150
160
170
180
190
200
210
220
230
240
250
260
270
280
290
300
310
320
330
340
350
360
370
380
390
400
410
420
430
440
450
460
470
480
490
500
510
520
530
540
550
560
570
580
590
600
610
620
630
640
650
660
670
680
690
700
710
720
730
740
750
760
770
780
790
800
810
820
830
840
850
860
870
880
890
900
910
920
930
940
950
960
970
980
990
1000
</DataArray>
<DataArray type="Float32" format="ascii">
0
</DataArray>
<DataArray type="Float32" format="ascii">
0
</DataArray>
</Coordinates>
<CellData>
<DataArray Name="h" type="Float32" format="ascii">
12.3302
12.3239
12.3273
12.3346
12.3446
12.35
12.3863
12.295
12.4558
12.3211
12.331
12.4181
12.3376
12.3713
12.361
12.3772
12.3377
12.4027
12.3278
12.39
12.3717
12.3419
12.3635
12.4353
12.2222
12.5322
12.2429
12.4301
12.3425
12.3799
12.336
12.3998
12.3293
12.3898
12.3372
12.3871
12.3346
12.4027
12.2921
12.4647
12.2251
12.5139
12.2508
12.3985
12.3869
12.3339
12.3668
12.362
12.3772
12.3417
12.377
12.3484
12.387
12.3227
12.406
12.3301
12.3759
12.3596
12.3663
12.3441
12.4047
12.2775
12.4816
12.2467
12.4364
12.3269
12.4018
12.3024
12.4062
12.3659
12.3215
12.4149
12.2914
12.4561
12.2529
12.4674
12.2718
12.4347
12.3235
12.351
12.4115
12.3119
12.3758
12.3808
12.3299
12.3683
12.43
12.5278
12.2995
12.2451
12.5065
12.3926
12.3771
12.352
12.405
12.4217
12.2961
12.4948
12.3402
12.3693
</DataArray>
<DataArray Name="hu" type="Float32" format="ascii">
28.0622
28.1211
28.0936
28.0465
27.9186
27.8538
28.1212
26.9276
29.0194
27.2081
27.4294
28.5445
27.512
27.9236
27.8266
27.9824
27.5201
28.3192
27.3735
28.1512
27.9675
27.4618
27.9378
28.6788
26.1094
30.0274
26.2752
28.6739
27.5637
27.9943
27.4869
28.2568
27.3928
28.1197
27.5103
28.0628
27.507
28.2427
26.9943
29.0842
26.1053
29.7953
26.3245
28.2917
28.1
27.4239
27.8357
27.805
27.9636
27.5383
27.9571
27.6372
28.0846
27.3005
28.3466
27.3849
27.9462
27.791
27.7854
27.6294
28.2709
26.7849
29.3288
26.322
28.7449
27.3456
28.3037
26.9869
28.4149
27.7733
27.3309
28.415
26.962
28.9667
26.4378
29.156
26.6314
28.7418
27.2417
27.681
28.4455
27.0975
27.9554
28.1019
27.5404
27.8409
27.125
26.6569
27.6923
29.0683
26.796
26.6033
28.719
26.7628
27.8179
27.9311
26.3112
28.894
26.8165
27.2173
</DataArray>
</CellData>
</Piece>
</RectilinearGrid>
</VTKFile>
