<?xml version="1.0"?>
<VTKFile type="RectilinearGrid">
<RectilinearGrid WholeExtent="0 100 0 0 0 0">
<Piece Extent="0 100 0 0 0 0">
<Coordinates>
<DataArray type="Float32" format="ascii">
0
10
20
30
40
50
60
70
80
90
100
110
120
130
140
150
160
170
180
190
200
210
220
230
240
250
260
270
280
290
300
310
320
330
340
350
360
370
380
390
400
410
420
430
440
450
460
470
480
490
500
510
520
530
540
550
560
570
580
590
600
610
620
630
640
650
660
670
680
690
700
710
720
730
740
750
760
770
780
790
800
810
820
830
840
850
860
870
880
890
900
910
920
930
940
950
960
970
980
990
1000
</DataArray>
<DataArray type="Float32" format="ascii">
0
</DataArray>
<DataArray type="Float32" format="ascii">
0
</DataArray>
</Coordinates>
<CellData>
<DataArray Name="h" type="Float32" format="ascii">
15
15
15
15
15
15
14.9998
14.9993
14.9979
14.994
14.9854
14.9683
14.9382
14.8907
14.8223
14.7317
14.6191
14.4867
14.3375
14.1748
14.0024
13.8236
13.6419
13.4609
13.284
13.115
12.9575
12.8153
12.6916
12.5888
12.5081
12.4487
12.4083
12.3832
12.369
12.3619
12.3589
12.358
12.3579
12.3582
12.3585
12.3588
12.359
12.3592
12.3594
12.3595
12.3596
12.3597
12.3598
12.3598
12.3599
12.3599
12.3599
12.3599
12.3599
12.3599
12.3599
12.3599
12.3598
12.3598
12.3597
12.3596
12.3595
12.3594
12.3593
12.3592
12.359
12.3589
12.3586
12.3584
12.3581
12.3578
12.3573
12.3565
12.3546
12.3497
12.3358
12.2967
12.1915
11.9413
11.4774
10.8958
10.4314
10.176
10.0649
10.0223
10.0072
10.0022
10.0006
10.0002
10
10
10
10
10
10
10
10
10
10
</DataArray>
<DataArray Name="hu" type="Float32" format="ascii">
6.02351e-15
2.46635e-11
3.40219e-08
6.92187e-06
7.67793e-05
0.000476261
0.00214404
0.00804528
0.0258723
0.0721575
0.17661
0.383465
0.746616
1.31814
2.13482
3.20916
4.52845
6.06046
7.76171
9.58476
11.4829
13.4125
15.3332
17.208
19.002
20.6823
22.2178
23.5804
24.7471
25.7033
26.4465
26.9887
27.3556
27.5832
27.7109
27.7741
27.8006
27.8085
27.8083
27.8054
27.8018
27.7983
27.7952
27.7924
27.7899
27.7876
27.7855
27.7835
27.7816
27.7798
27.7781
27.7764
27.7748
27.7732
27.7717
27.7701
27.7685
27.7668
27.7652
27.7634
27.7616
27.7597
27.7577
27.7557
27.7535
27.7511
27.7486
27.7459
27.743
27.7396
27.7356
27.7309
27.7243
27.7128
27.6871
27.6199
27.4311
26.8997
25.4837
22.1927
16.3646
9.53151
4.43248
1.77058
0.646318
0.221354
0.0713647
0.0215168
0.00600901
0.00153962
0.00035918
7.36004e-05
1.14888e-05
3.98444e-07
2.76641e-09
6.71752e-12
4.2326e-14
8.49949e-17
1.58946e-19
2.48822e-22
</DataArray>
</CellData>
</Piece>
</RectilinearGrid>
</VTKFile>
