<?xml version="1.0"?>
<VTKFile type="RectilinearGrid">
<RectilinearGrid WholeExtent="0 100 0 0 0 0">
<Piece Extent="0 100 0 0 0 0">
<Coordinates>
<DataArray type="Float32" format="ascii">
0
10
20
30
40
50
60
70
80
90
100
110
120
130
140
150
160
170
180
190
200
210
220
230
240
250
260
270
280
290
300
310
320
330
340
350
360
370
380
390
400
410
420
430
440
450
460
470
480
490
500
510
520
530
540
550
560
570
580
590
600
610
620
630
640
650
660
670
680
690
700
710
720
730
740
750
760
770
780
790
800
810
820
830
840
850
860
870
880
890
900
910
920
930
940
950
960
970
980
990
1000
</DataArray>
<DataArray type="Float32" format="ascii">
0
</DataArray>
<DataArray type="Float32" format="ascii">
0
</DataArray>
</Coordinates>
<CellData>
<DataArray Name="h" type="Float32" format="ascii">
14.9996
14.9989
14.9968
14.9922
14.9827
14.9653
14.9364
14.8929
14.8321
14.7531
14.6562
14.5428
14.415
14.2752
14.1262
13.9704
13.8102
13.6482
13.4866
13.3278
13.1744
13.029
12.8942
12.7726
12.6664
12.5774
12.5061
12.4523
12.414
12.3888
12.3735
12.365
12.3609
12.3591
12.3586
12.3587
12.3589
12.3591
12.3594
12.3596
12.3598
12.3599
12.36
12.3602
12.3603
12.3603
12.3604
12.3604
12.3605
12.3605
12.3605
12.3606
12.3606
12.3606
12.3606
12.3605
12.3605
12.3605
12.3605
12.3604
12.3604
12.3603
12.3603
12.3602
12.3601
12.36
12.3599
12.3598
12.3597
12.3596
12.3595
12.3593
12.3592
12.359
12.3588
12.3586
12.3583
12.358
12.3574
12.3562
12.3532
12.3453
12.323
12.2614
12.1031
11.761
11.2201
10.6662
10.2971
10.1166
10.0425
10.0147
10.0048
10.0015
10.0004
10.0001
10
10
10
10
</DataArray>
<DataArray Name="hu" type="Float32" format="ascii">
0.00434923
0.0137445
0.038243
0.0945609
0.209666
0.420342
0.768394
1.29231
2.0185
2.95591
4.09571
5.41512
6.88294
8.46451
10.1253
11.8328
13.557
15.2706
16.9482
18.5658
20.1005
21.53
22.8332
23.9911
24.9882
25.815
26.4703
26.9626
27.3101
27.5384
27.6766
27.7526
27.7897
27.8049
27.8089
27.808
27.8055
27.8025
27.7997
27.7972
27.7949
27.7928
27.7909
27.7892
27.7876
27.7861
27.7847
27.7834
27.7821
27.7808
27.7796
27.7785
27.7773
27.7762
27.775
27.7739
27.7727
27.7716
27.7704
27.7692
27.768
27.7668
27.7656
27.7643
27.763
27.7617
27.7602
27.7586
27.7569
27.7551
27.753
27.7508
27.7484
27.7457
27.7426
27.7393
27.7353
27.73
27.7217
27.7057
27.6664
27.5582
27.2546
26.4213
24.3118
19.8862
13.279
6.96902
3.01873
1.16667
0.422307
0.145625
0.0478537
0.0148876
0.00434589
0.0011841
0.0002961
6.47925e-05
1.15276e-05
4.07295e-07
</DataArray>
</CellData>
</Piece>
</RectilinearGrid>
</VTKFile>
