<?xml version="1.0"?>
<VTKFile type="RectilinearGrid">
<RectilinearGrid WholeExtent="0 100 0 0 0 0">
<Piece Extent="0 100 0 0 0 0">
<Coordinates>
<DataArray type="Float32" format="ascii">
0
10
20
30
40
50
60
70
80
90
100
110
120
130
140
150
160
170
180
190
200
210
220
230
240
250
260
270
280
290
300
310
320
330
340
350
360
370
380
390
400
410
420
430
440
450
460
470
480
490
500
510
520
530
540
550
560
570
580
590
600
610
620
630
640
650
660
670
680
690
700
710
720
730
740
750
760
770
780
790
800
810
820
830
840
850
860
870
880
890
900
910
920
930
940
950
960
970
980
990
1000
</DataArray>
<DataArray type="Float32" format="ascii">
0
</DataArray>
<DataArray type="Float32" format="ascii">
0
</DataArray>
</Coordinates>
<CellData>
<DataArray Name="h" type="Float32" format="ascii">
12.3406
12.3491
12.3556
12.3599
12.3612
12.3619
12.36
12.3612
12.3606
12.3568
12.3587
12.399
12.2503
12.507
12.3053
12.3082
12.4455
12.3279
12.3731
12.36
12.3818
12.322
12.4218
12.3052
12.3993
12.3789
12.3217
12.3625
12.4678
12.1464
12.6289
12.1928
12.4591
12.3347
12.3865
12.3203
12.4164
12.3122
12.4011
12.3239
12.3952
12.3228
12.4174
12.2591
12.5135
12.1555
12.6034
12.205
12.409
12.4025
12.3231
12.3661
12.3606
12.3855
12.3326
12.3817
12.3422
12.3986
12.301
12.4279
12.3147
12.38
12.3588
12.3644
12.338
12.4209
12.2313
12.5477
12.1972
12.4668
12.3117
12.4231
12.2692
12.4264
12.3679
12.3024
12.4365
12.2573
12.5028
12.2005
12.5179
12.2401
12.5303
12.3798
12.358
12.4211
12.3131
12.4254
12.4241
12.3477
12.3915
12.384
12.4177
12.3494
12.4041
12.4131
12.3319
12.4668
12.3157
12.4239
</DataArray>
<DataArray Name="hu" type="Float32" format="ascii">
27.9713
27.8933
27.8332
27.7942
27.7813
27.7789
27.7899
27.7932
27.8312
27.7183
27.8478
28.2431
26.3877
29.7566
27.0074
27.142
28.8874
27.3723
27.9326
27.837
28.0538
27.3601
28.5905
27.122
28.3101
28.1135
27.1973
28.0146
29.0563
25.1484
31.2707
25.625
29.0503
27.4825
28.0863
27.3267
28.5019
27.2289
28.2926
27.3995
28.1882
27.4264
28.4215
26.6338
29.6819
25.214
30.9608
25.7145
28.4432
28.3017
27.2885
27.824
27.8011
28.0689
27.433
28.0147
27.5862
28.2387
27.053
28.6495
27.2145
28.0169
27.827
27.7651
27.6121
28.4631
26.2291
30.1822
25.7032
29.1652
27.1918
28.6107
26.5762
28.7352
27.7998
27.1471
28.6872
26.5649
29.5544
25.8371
29.8858
25.9917
28.7906
26.3151
27.3991
29.01
26.5773
27.5514
27.9939
27.1847
27.615
27.4887
27.8999
26.9649
27.7294
27.7786
26.7738
28.4974
26.518
27.9394
</DataArray>
</CellData>
</Piece>
</RectilinearGrid>
</VTKFile>
