<?xml version="1.0"?>
<VTKFile type="RectilinearGrid">
<RectilinearGrid WholeExtent="0 100 0 0 0 0">
<Piece Extent="0 100 0 0 0 0">
<Coordinates>
<DataArray type="Float32" format="ascii">
0
10
20
30
40
50
60
70
80
90
100
110
120
130
140
150
160
170
180
190
200
210
220
230
240
250
260
270
280
290
300
310
320
330
340
350
360
370
380
390
400
410
420
430
440
450
460
470
480
490
500
510
520
530
540
550
560
570
580
590
600
610
620
630
640
650
660
670
680
690
700
710
720
730
740
750
760
770
780
790
800
810
820
830
840
850
860
870
880
890
900
910
920
930
940
950
960
970
980
990
1000
</DataArray>
<DataArray type="Float32" format="ascii">
0
</DataArray>
<DataArray type="Float32" format="ascii">
0
</DataArray>
</Coordinates>
<CellData>
<DataArray Name="h" type="Float32" format="ascii">
15
15
15
15
15
15
15
15
15
15
15
15
15
15
15
15
15
15
15
14.9999
14.9994
14.9976
14.992
14.9774
14.9462
14.8892
14.7987
14.6709
14.5069
14.3116
14.092
13.8565
13.6137
13.3727
13.1426
12.9328
12.7519
12.6064
12.4993
12.4284
12.3873
12.3668
12.3584
12.3558
12.3555
12.3559
12.3564
12.3568
12.3571
12.3573
12.3574
12.3575
12.3576
12.3576
12.3576
12.3575
12.3575
12.3573
12.3571
12.3569
12.3566
12.3561
12.3554
12.3537
12.3492
12.3356
12.2952
12.1846
11.9217
11.442
10.8551
10.3986
10.1546
10.0526
10.0161
10.0044
10.0011
10.0002
10
10
10
10
10
10
10
10
10
10
10
10
10
10
10
10
10
10
10
10
10
10
</DataArray>
<DataArray Name="hu" type="Float32" format="ascii">
0
0
0
0
0
0
0
0
0
0
0
0
0
0
0
2.0832e-12
8.66756e-08
1.48049e-05
0.000183117
0.0012988
0.00689967
0.0287783
0.0973471
0.273436
0.65049
1.33599
2.41573
3.92219
5.82609
8.05084
10.4952
13.0517
15.6166
18.0933
20.3934
22.4375
24.1605
25.5197
26.5064
27.1525
27.5253
27.7098
27.7844
27.8059
27.8066
27.8012
27.7949
27.7891
27.7839
27.7793
27.775
27.7709
27.767
27.7631
27.7592
27.7551
27.7509
27.7464
27.7414
27.7359
27.7296
27.7219
27.7103
27.6867
27.6238
27.4374
26.8892
25.3998
21.9458
15.9396
9.07524
4.08609
1.55291
0.523984
0.159467
0.0435376
0.0105075
0.00219914
0.00039015
5.67781e-05
5.66797e-06
3.00364e-08
5.6545e-11
9.08947e-14
3.75768e-17
0
0
0
0
0
0
0
0
0
0
0
0
0
0
0
</DataArray>
</CellData>
</Piece>
</RectilinearGrid>
</VTKFile>
