<?xml version="1.0"?>
<VTKFile type="RectilinearGrid">
<RectilinearGrid WholeExtent="0 100 0 0 0 0">
<Piece Extent="0 100 0 0 0 0">
<Coordinates>
<DataArray type="Float32" format="ascii">
0
10
20
30
40
50
60
70
80
90
100
110
120
130
140
150
160
170
180
190
200
210
220
230
240
250
260
270
280
290
300
310
320
330
340
350
360
370
380
390
400
410
420
430
440
450
460
470
480
490
500
510
520
530
540
550
560
570
580
590
600
610
620
630
640
650
660
670
680
690
700
710
720
730
740
750
760
770
780
790
800
810
820
830
840
850
860
870
880
890
900
910
920
930
940
950
960
970
980
990
1000
</DataArray>
<DataArray type="Float32" format="ascii">
0
</DataArray>
<DataArray type="Float32" format="ascii">
0
</DataArray>
</Coordinates>
<CellData>
<DataArray Name="h" type="Float32" format="ascii">
15
15
15
15
15
15
15
15
15
15
15
15
15
15
15
15
15
14.9997
14.9989
14.996
14.9879
14.9693
14.9328
14.8705
14.7769
14.6497
14.4909
14.3049
14.0981
13.8773
13.6497
13.4225
13.2033
12.9997
12.819
12.6676
12.5493
12.4648
12.4103
12.3794
12.3642
12.3581
12.3563
12.3561
12.3565
12.3569
12.3573
12.3576
12.3578
12.358
12.3581
12.3582
12.3582
12.3582
12.3582
12.3582
12.3581
12.358
12.3579
12.3577
12.3575
12.3573
12.3569
12.3565
12.3557
12.3541
12.3498
12.3368
12.2989
12.1953
11.9463
11.4815
10.8955
10.4259
10.1689
10.0591
10.0187
10.0054
10.0014
10.0003
10.0001
10
10
10
10
10
10
10
10
10
10
10
10
10
10
10
10
10
10
10
</DataArray>
<DataArray Name="hu" type="Float32" format="ascii">
0
0
0
0
0
0
0
0
0
0
0
0
9.42085e-14
3.91996e-09
5.95094e-06
6.71678e-05
0.000548694
0.00310103
0.0136681
0.0490392
0.146548
0.371474
0.812394
1.5595
2.67459
4.17064
6.01153
8.12676
10.4296
12.8304
15.2436
17.5901
19.7964
21.7959
23.5305
24.9565
26.0524
26.8272
27.3221
27.6017
27.7378
27.7921
27.8073
27.8069
27.802
27.7965
27.7914
27.7869
27.7828
27.7791
27.7756
27.7723
27.769
27.7658
27.7626
27.7593
27.7559
27.7524
27.7487
27.7447
27.7402
27.7352
27.7293
27.722
27.7109
27.6877
27.6271
27.4503
26.9364
25.5396
22.2608
16.4182
9.52981
4.37531
1.69805
0.58863
0.185899
0.0533484
0.0137412
0.00312647
0.000616713
0.000102439
1.24697e-05
3.70268e-07
7.45412e-10
1.40159e-12
2.24148e-15
9.25001e-19
0
0
0
0
0
0
0
0
0
0
0
0
</DataArray>
</CellData>
</Piece>
</RectilinearGrid>
</VTKFile>
