<?xml version="1.0"?>
<VTKFile type="RectilinearGrid">
<RectilinearGrid WholeExtent="0 100 0 0 0 0">
<Piece Extent="0 100 0 0 0 0">
<Coordinates>
<DataArray type="Float32" format="ascii">
0
10
20
30
40
50
60
70
80
90
100
110
120
130
140
150
160
170
180
190
200
210
220
230
240
250
260
270
280
290
300
310
320
330
340
350
360
370
380
390
400
410
420
430
440
450
460
470
480
490
500
510
520
530
540
550
560
570
580
590
600
610
620
630
640
650
660
670
680
690
700
710
720
730
740
750
760
770
780
790
800
810
820
830
840
850
860
870
880
890
900
910
920
930
940
950
960
970
980
990
1000
</DataArray>
<DataArray type="Float32" format="ascii">
0
</DataArray>
<DataArray type="Float32" format="ascii">
0
</DataArray>
</Coordinates>
<CellData>
<DataArray Name="h" type="Float32" format="ascii">
12.3565
12.3352
12.3277
12.3167
12.3577
12.2822
12.4234
12.3263
12.3364
12.4123
12.3436
12.3724
12.3598
12.3771
12.3397
12.3971
12.3341
12.3848
12.3691
12.3514
12.3561
12.4345
12.2399
12.5058
12.2599
12.4204
12.3439
12.3792
12.3388
12.3949
12.3331
12.3869
12.3393
12.3863
12.3344
12.4034
12.2963
12.4573
12.2419
12.4883
12.2693
12.3917
12.3826
12.338
12.3674
12.3608
12.3755
12.3439
12.3765
12.3481
12.3857
12.3276
12.3995
12.3351
12.3742
12.3587
12.3687
12.3421
12.4053
12.2862
12.465
12.2624
12.4269
12.3288
12.3973
12.3132
12.3965
12.3686
12.3239
12.4128
12.2971
12.4468
12.2653
12.4533
12.2847
12.4207
12.3324
12.3509
12.4038
12.3215
12.3716
12.3797
12.3408
12.3698
12.3588
12.3688
12.3336
12.3765
12.5037
12.4929
12.1728
12.3024
12.6302
12.2901
12.3212
12.4807
12.3382
12.3814
12.403
12.4444
</DataArray>
<DataArray Name="hu" type="Float32" format="ascii">
27.8321
28.0276
28.1219
28.068
28.4059
27.259
28.8937
27.3829
27.4862
28.4023
27.5413
27.9136
27.8075
27.9911
27.5558
28.2537
27.4678
28.0854
27.9394
27.5986
27.8193
28.6564
26.2812
29.6453
26.4872
28.5434
27.5803
27.9932
27.5146
28.1991
27.439
28.0821
27.5367
28.0501
27.4957
28.2531
27.0114
28.9634
26.2712
29.4312
26.5618
28.1991
28.0433
27.481
27.8433
27.7901
27.9419
27.5685
27.9506
27.632
28.0639
27.359
28.2555
27.4475
27.9254
27.7712
27.8277
27.5836
28.2881
26.8539
29.0923
26.5077
28.6161
27.3649
28.2421
27.1207
28.2765
27.8148
27.3475
28.3822
27.0045
28.8333
26.5675
28.96
26.7762
28.5616
27.372
27.6669
28.3242
27.2224
27.9246
28.0294
27.5181
27.8379
27.7341
28.0412
27.576
27.7906
26.8807
25.7809
30.3322
27.5471
25.5004
29.1441
26.3487
28.5771
27.0192
27.3121
27.725
28.2142
</DataArray>
</CellData>
</Piece>
</RectilinearGrid>
</VTKFile>
