<?xml version="1.0"?>
<VTKFile type="RectilinearGrid">
<RectilinearGrid WholeExtent="0 100 0 0 0 0">
<Piece Extent="0 100 0 0 0 0">
<Coordinates>
<DataArray type="Float32" format="ascii">
0
10
20
30
40
50
60
70
80
90
100
110
120
130
140
150
160
170
180
190
200
210
220
230
240
250
260
270
280
290
300
310
320
330
340
350
360
370
380
390
400
410
420
430
440
450
460
470
480
490
500
510
520
530
540
550
560
570
580
590
600
610
620
630
640
650
660
670
680
690
700
710
720
730
740
750
760
770
780
790
800
810
820
830
840
850
860
870
880
890
900
910
920
930
940
950
960
970
980
990
1000
</DataArray>
<DataArray type="Float32" format="ascii">
0
</DataArray>
<DataArray type="Float32" format="ascii">
0
</DataArray>
</Coordinates>
<CellData>
<DataArray Name="h" type="Float32" format="ascii">
14.9991
14.9974
14.9935
14.9853
14.97
14.9443
14.9049
14.8491
14.7757
14.6845
14.5768
14.4544
14.3197
14.1753
14.0234
13.8666
13.7071
13.5472
13.3891
13.2354
13.0883
12.9505
12.8245
12.7126
12.6167
12.538
12.4766
12.4314
12.4003
12.3805
12.3689
12.3628
12.36
12.3589
12.3587
12.3588
12.3591
12.3593
12.3595
12.3597
12.3599
12.36
12.3602
12.3603
12.3603
12.3604
12.3605
12.3605
12.3606
12.3606
12.3606
12.3606
12.3606
12.3606
12.3606
12.3606
12.3606
12.3606
12.3605
12.3605
12.3605
12.3604
12.3604
12.3603
12.3602
12.3601
12.36
12.3599
12.3598
12.3597
12.3596
12.3595
12.3593
12.3592
12.359
12.3588
12.3586
12.3583
12.3579
12.3571
12.3556
12.3518
12.3411
12.311
12.2292
12.0267
11.6194
11.0471
10.5346
10.2279
10.0872
10.0313
10.0107
10.0035
10.0011
10.0003
10.0001
10
10
10
</DataArray>
<DataArray Name="hu" type="Float32" format="ascii">
0.0112053
0.0316245
0.0793381
0.178496
0.363095
0.673242
1.14773
1.81542
2.68909
3.7641
5.0213
6.43211
7.96354
9.58201
11.2555
12.9546
14.6521
16.3233
17.9448
19.4942
20.9501
22.2915
23.4993
24.5566
25.4514
26.1785
26.7413
27.1528
27.4347
27.6138
27.7182
27.7732
27.7984
27.8075
27.8089
27.8071
27.8044
27.8015
27.7989
27.7965
27.7943
27.7924
27.7906
27.7889
27.7874
27.786
27.7847
27.7834
27.7822
27.781
27.7798
27.7787
27.7776
27.7765
27.7754
27.7743
27.7732
27.7721
27.7709
27.7698
27.7687
27.7675
27.7664
27.7652
27.764
27.7627
27.7613
27.7598
27.7582
27.7564
27.7545
27.7524
27.7501
27.7476
27.7449
27.7419
27.7384
27.734
27.7283
27.719
27.6985
27.6457
27.5001
27.0927
25.99
23.3041
18.1086
11.2576
5.53564
2.30207
0.870745
0.311176
0.106207
0.034544
0.0106302
0.00306945
0.000824257
0.000202341
4.42912e-05
6.47653e-06
</DataArray>
</CellData>
</Piece>
</RectilinearGrid>
</VTKFile>
