<?xml version="1.0"?>
<VTKFile type="RectilinearGrid">
<RectilinearGrid WholeExtent="0 100 0 0 0 0">
<Piece Extent="0 100 0 0 0 0">
<Coordinates>
<DataArray type="Float32" format="ascii">
0
10
20
30
40
50
60
70
80
90
100
110
120
130
140
150
160
170
180
190
200
210
220
230
240
250
260
270
280
290
300
310
320
330
340
350
360
370
380
390
400
410
420
430
440
450
460
470
480
490
500
510
520
530
540
550
560
570
580
590
600
610
620
630
640
650
660
670
680
690
700
710
720
730
740
750
760
770
780
790
800
810
820
830
840
850
860
870
880
890
900
910
920
930
940
950
960
970
980
990
1000
</DataArray>
<DataArray type="Float32" format="ascii">
0
</DataArray>
<DataArray type="Float32" format="ascii">
0
</DataArray>
</Coordinates>
<CellData>
<DataArray Name="h" type="Float32" format="ascii">
12.3245
12.3267
12.3329
12.3439
12.3523
12.3601
12.348
12.4204
12.2421
12.4987
12.316
12.3014
12.4448
12.3268
12.3751
12.3559
12.3905
12.3164
12.4278
12.3074
12.3962
12.3811
12.3336
12.3374
12.5042
12.1209
12.6307
12.1828
12.4595
12.3302
12.3944
12.3151
12.4232
12.3092
12.4073
12.3206
12.4042
12.311
12.4378
12.2336
12.5435
12.1312
12.6029
12.2035
12.4023
12.4045
12.3232
12.3685
12.3569
12.3889
12.3301
12.3863
12.3354
12.4083
12.2953
12.4312
12.315
12.3815
12.357
12.3731
12.323
12.4455
12.21
12.5604
12.1856
12.4726
12.302
12.4346
12.2685
12.4192
12.3799
12.2899
12.4553
12.2365
12.5228
12.1826
12.5334
12.2198
12.4707
12.313
12.332
12.4468
12.2874
12.3638
12.3999
12.3914
12.5107
12.3372
12.2795
12.4237
12.4446
12.3745
12.3232
12.4688
12.3186
12.4015
12.4661
12.2316
12.5476
12.3299
</DataArray>
<DataArray Name="hu" type="Float32" format="ascii">
28.1118
28.094
28.0399
27.9406
27.9001
27.7852
27.6727
28.4744
26.2374
29.6425
27.1542
27.0684
28.8888
27.3741
27.9536
27.7716
28.1337
27.2545
28.6292
27.1168
28.2124
28.1347
27.321
27.7047
29.5293
24.8117
31.28
25.4945
29.0435
27.4215
28.1629
27.2309
28.5432
27.1544
28.3213
27.3286
28.2517
27.2709
28.6676
26.3135
30.0709
24.8868
30.9501
25.689
28.3548
28.3225
27.2889
27.8462
27.7519
28.1041
27.4002
28.0646
27.4911
28.3429
26.9563
28.6647
27.2011
27.9971
27.7933
27.8439
27.423
28.7693
25.9442
30.3217
25.5322
29.2144
27.032
28.735
26.5204
28.6296
27.9253
26.9789
28.8996
26.3039
29.8088
25.548
29.9872
25.9332
29.2485
27.1145
27.4175
28.8673
26.8519
27.9991
28.2688
26.7855
26.6011
27.7734
29.2402
26.3411
27.1806
28.3749
26.6159
28.5952
26.5721
27.7599
28.4243
25.4668
29.5715
26.6967
</DataArray>
</CellData>
</Piece>
</RectilinearGrid>
</VTKFile>
