<?xml version="1.0"?>
<VTKFile type="RectilinearGrid">
<RectilinearGrid WholeExtent="0 100 0 0 0 0">
<Piece Extent="0 100 0 0 0 0">
<Coordinates>
<DataArray type="Float32" format="ascii">
0
10
20
30
40
50
60
70
80
90
100
110
120
130
140
150
160
170
180
190
200
210
220
230
240
250
260
270
280
290
300
310
320
330
340
350
360
370
380
390
400
410
420
430
440
450
460
470
480
490
500
510
520
530
540
550
560
570
580
590
600
610
620
630
640
650
660
670
680
690
700
710
720
730
740
750
760
770
780
790
800
810
820
830
840
850
860
870
880
890
900
910
920
930
940
950
960
970
980
990
1000
</DataArray>
<DataArray type="Float32" format="ascii">
0
</DataArray>
<DataArray type="Float32" format="ascii">
0
</DataArray>
</Coordinates>
<CellData>
<DataArray Name="h" type="Float32" format="ascii">
15
15
15
15
15
15
15
15
15
15
15
14.9999
14.9998
14.999
14.9967
14.9906
14.9769
14.9501
14.9041
14.8339
14.7366
14.6122
14.4632
14.2935
14.1077
13.911
13.7083
13.5047
13.3052
13.1151
12.9398
12.7844
12.6531
12.5487
12.4715
12.4191
12.387
12.3695
12.3612
12.3579
12.3571
12.3572
12.3575
12.3578
12.3582
12.3584
12.3586
12.3588
12.3589
12.359
12.3591
12.3591
12.3592
12.3592
12.3592
12.3591
12.3591
12.359
12.359
12.3589
12.3588
12.3586
12.3585
12.3583
12.3581
12.3578
12.3575
12.3571
12.3563
12.3548
12.3509
12.3394
12.3066
12.2165
11.9956
11.5641
10.9833
10.4865
10.2003
10.0732
10.0246
10.0076
10.0022
10.0006
10.0001
10
10
10
10
10
10
10
10
10
10
10
10
10
10
10
</DataArray>
<DataArray Name="hu" type="Float32" format="ascii">
0
0
0
0
0
0
1.95486e-16
8.13499e-12
3.32687e-08
6.94861e-06
8.98509e-05
0.000604822
0.00298877
0.0119528
0.0399718
0.113824
0.280183
0.604229
1.15738
1.99733
3.15092
4.6084
6.32986
8.25723
10.3256
12.4707
14.6321
16.7539
18.7844
20.6753
22.3823
23.8666
25.0993
26.0665
26.7745
27.2511
27.5419
27.6996
27.7737
27.802
27.8087
27.807
27.8028
27.7984
27.7943
27.7907
27.7875
27.7845
27.7818
27.7792
27.7768
27.7744
27.7721
27.7698
27.7676
27.7653
27.763
27.7606
27.7582
27.7557
27.753
27.75
27.7469
27.7435
27.7397
27.7352
27.7299
27.7234
27.7132
27.6918
27.6369
27.4813
27.0361
25.8223
22.9013
17.4277
10.5277
5.02063
2.0191
0.729816
0.243836
0.0755175
0.0215012
0.00555561
0.00128569
0.000265385
4.71755e-05
5.83867e-06
3.5164e-08
2.31614e-10
4.65742e-13
8.73578e-16
1.383e-18
5.68714e-22
0
0
0
0
0
0
</DataArray>
</CellData>
</Piece>
</RectilinearGrid>
</VTKFile>
