<?xml version="1.0"?>
<VTKFile type="RectilinearGrid">
<RectilinearGrid WholeExtent="0 100 0 0 0 0">
<Piece Extent="0 100 0 0 0 0">
<Coordinates>
<DataArray type="Float32" format="ascii">
0
10
20
30
40
50
60
70
80
90
100
110
120
130
140
150
160
170
180
190
200
210
220
230
240
250
260
270
280
290
300
310
320
330
340
350
360
370
380
390
400
410
420
430
440
450
460
470
480
490
500
510
520
530
540
550
560
570
580
590
600
610
620
630
640
650
660
670
680
690
700
710
720
730
740
750
760
770
780
790
800
810
820
830
840
850
860
870
880
890
900
910
920
930
940
950
960
970
980
990
1000
</DataArray>
<DataArray type="Float32" format="ascii">
0
</DataArray>
<DataArray type="Float32" format="ascii">
0
</DataArray>
</Coordinates>
<CellData>
<DataArray Name="h" type="Float32" format="ascii">
15
15
15
15
15
15
15
15
15
15
15
15
15
15
15
15
15
15
15
15
15
15
15
15
15
15
15
15
15
15
15
15
15
14.9997
14.9976
14.9879
14.9563
14.8788
14.7301
14.4973
14.1869
13.8221
13.4368
13.0706
12.7633
12.5441
12.4187
12.3653
12.3504
12.3487
12.3494
12.3498
12.3497
12.3487
12.3438
12.3234
12.2515
12.0475
11.613
10.9952
10.4569
10.1601
10.0446
10.01
10.0017
10.0002
10
10
10
10
10
10
10
10
10
10
10
10
10
10
10
10
10
10
10
10
10
10
10
10
10
10
10
10
10
10
10
10
10
10
</DataArray>
<DataArray Name="hu" type="Float32" format="ascii">
0
0
0
0
0
0
0
0
0
0
0
0
0
0
0
0
0
0
0
0
0
0
0
0
0
0
0
0
0
0
0
8.52459e-06
0.00033873
0.00409052
0.0296092
0.146409
0.528351
1.46015
3.22482
5.93011
9.43106
13.3929
17.4021
21.0506
23.9964
26.0354
27.1789
27.6571
27.7838
27.789
27.7712
27.7525
27.7326
27.7025
27.6218
27.3324
26.3509
23.6288
18.0691
10.6844
4.71164
1.6098
0.443551
0.098813
0.0173381
0.00229082
0.000212834
1.07718e-05
2.28172e-08
0
0
0
0
0
0
0
0
0
0
0
0
0
0
0
0
0
0
0
0
0
0
0
0
0
0
0
0
0
0
0
</DataArray>
</CellData>
</Piece>
</RectilinearGrid>
</VTKFile>
