<?xml version="1.0"?>
<VTKFile type="RectilinearGrid">
<RectilinearGrid WholeExtent="0 100 0 0 0 0">
<Piece Extent="0 100 0 0 0 0">
<Coordinates>
<DataArray type="Float32" format="ascii">
0
10
20
30
40
50
60
70
80
90
100
110
120
130
140
150
160
170
180
190
200
210
220
230
240
250
260
270
280
290
300
310
320
330
340
350
360
370
380
390
400
410
420
430
440
450
460
470
480
490
500
510
520
530
540
550
560
570
580
590
600
610
620
630
640
650
660
670
680
690
700
710
720
730
740
750
760
770
780
790
800
810
820
830
840
850
860
870
880
890
900
910
920
930
940
950
960
970
980
990
1000
</DataArray>
<DataArray type="Float32" format="ascii">
0
</DataArray>
<DataArray type="Float32" format="ascii">
0
</DataArray>
</Coordinates>
<CellData>
<DataArray Name="h" type="Float32" format="ascii">
12.489
12.4358
12.3894
12.369
12.3285
12.3303
12.335
12.3288
12.3444
12.3528
12.3618
12.3639
12.3715
12.3633
12.3706
12.3636
12.3633
12.3682
12.3666
12.3539
12.3829
12.3469
12.375
12.3594
12.3641
12.3607
12.3661
12.3578
12.3654
12.3594
12.3647
12.3596
12.3649
12.3571
12.3707
12.3498
12.378
12.3457
12.3724
12.3622
12.3572
12.3643
12.3632
12.3625
12.3596
12.3644
12.3609
12.3637
12.3588
12.3671
12.3573
12.365
12.3614
12.3622
12.3612
12.3647
12.3566
12.3724
12.348
12.3738
12.3569
12.3636
12.3571
12.3695
12.3586
12.3591
12.3672
12.3561
12.3701
12.3508
12.3737
12.3512
12.3706
12.3548
12.3646
12.3648
12.3544
12.3669
12.3625
12.3577
12.3633
12.3621
12.3627
12.3587
12.3634
12.3609
12.3602
12.3667
12.3483
12.3581
12.3687
12.4732
12.5354
12.1242
12.3414
12.6019
12.2702
12.3938
12.4047
12.1383
</DataArray>
<DataArray Name="hu" type="Float32" format="ascii">
26.6595
27.1611
27.5139
27.9801
27.9065
28.1822
28.2729
28.0642
28.0643
27.9564
27.8847
27.8285
27.8763
27.7919
27.904
27.8356
27.8319
27.913
27.8613
27.7218
28.0724
27.6129
27.9737
27.7694
27.8243
27.7885
27.845
27.7483
27.8334
27.7643
27.8263
27.763
27.8252
27.7342
27.8941
27.642
27.9895
27.5761
27.9284
27.7871
27.7247
27.8185
27.8038
27.7926
27.7585
27.8151
27.7774
27.8036
27.75
27.8467
27.7278
27.8203
27.7812
27.7802
27.7825
27.8095
27.7213
27.9161
27.6004
27.9442
27.7139
27.812
27.7142
27.8893
27.7334
27.748
27.8457
27.7151
27.8791
27.639
27.9351
27.645
27.8971
27.687
27.8205
27.8177
27.6892
27.8457
27.7853
27.727
27.8071
27.7839
27.7725
27.7377
27.825
27.7768
27.7196
27.8303
27.7628
27.9164
27.6726
26.654
26.4176
29.5836
28.0534
25.5954
28.5223
27.3334
27.576
24.2526
</DataArray>
</CellData>
</Piece>
</RectilinearGrid>
</VTKFile>
