<?xml version="1.0"?>
<VTKFile type="RectilinearGrid">
<RectilinearGrid WholeExtent="0 100 0 0 0 0">
<Piece Extent="0 100 0 0 0 0">
<Coordinates>
<DataArray type="Float32" format="ascii">
0
10
20
30
40
50
60
70
80
90
100
110
120
130
140
150
160
170
180
190
200
210
220
230
240
250
260
270
280
290
300
310
320
330
340
350
360
370
380
390
400
410
420
430
440
450
460
470
480
490
500
510
520
530
540
550
560
570
580
590
600
610
620
630
640
650
660
670
680
690
700
710
720
730
740
750
760
770
780
790
800
810
820
830
840
850
860
870
880
890
900
910
920
930
940
950
960
970
980
990
1000
</DataArray>
<DataArray type="Float32" format="ascii">
0
</DataArray>
<DataArray type="Float32" format="ascii">
0
</DataArray>
</Coordinates>
<CellData>
<DataArray Name="h" type="Float32" format="ascii">
15
15
15
15
15
15
15
15
15
15
15
15
15
15
15
15
15
15
15
15
15
15
15
15
15
14.9999
14.9992
14.9962
14.9865
14.9611
14.9072
14.8118
14.667
14.4726
14.2356
13.9676
13.6826
13.3956
13.1227
12.8797
12.6803
12.5332
12.4381
12.3861
12.363
12.3552
12.3536
12.3539
12.3544
12.3549
12.3553
12.3555
12.3556
12.3556
12.3554
12.3553
12.3549
12.3544
12.3534
12.3506
12.3415
12.3125
12.2271
12.01
11.5773
10.9857
10.4751
10.1841
10.0604
10.0172
10.0042
10.0009
10.0002
10
10
10
10
10
10
10
10
10
10
10
10
10
10
10
10
10
10
10
10
10
10
10
10
10
10
10
</DataArray>
<DataArray Name="hu" type="Float32" format="ascii">
0
0
0
0
0
0
0
0
0
0
0
0
0
0
0
0
0
0
0
0
0
0
3.15191e-09
8.54091e-06
0.000179495
0.00161149
0.00992944
0.0456582
0.163538
0.470978
1.12036
2.25974
3.96744
6.21836
8.89911
11.8476
14.8878
17.8494
20.576
22.932
24.8155
26.1788
27.0474
27.5181
27.7256
27.7938
27.805
27.799
27.7901
27.7816
27.7738
27.7666
27.7597
27.7528
27.7456
27.7379
27.7292
27.7184
27.701
27.6592
27.5325
27.1355
25.9814
23.1038
17.6015
10.5607
4.90136
1.85404
0.601916
0.170534
0.0418151
0.00869414
0.00149375
0.000204315
1.81002e-05
3.47735e-07
5.66016e-10
2.35008e-13
0
0
0
0
0
0
0
0
0
0
0
0
0
0
0
0
0
0
0
0
0
0
</DataArray>
</CellData>
</Piece>
</RectilinearGrid>
</VTKFile>
