<?xml version="1.0"?>
<VTKFile type="RectilinearGrid">
<RectilinearGrid WholeExtent="0 100 0 0 0 0">
<Piece Extent="0 100 0 0 0 0">
<Coordinates>
<DataArray type="Float32" format="ascii">
0
10
20
30
40
50
60
70
80
90
100
110
120
130
140
150
160
170
180
190
200
210
220
230
240
250
260
270
280
290
300
310
320
330
340
350
360
370
380
390
400
410
420
430
440
450
460
470
480
490
500
510
520
530
540
550
560
570
580
590
600
610
620
630
640
650
660
670
680
690
700
710
720
730
740
750
760
770
780
790
800
810
820
830
840
850
860
870
880
890
900
910
920
930
940
950
960
970
980
990
1000
</DataArray>
<DataArray type="Float32" format="ascii">
0
</DataArray>
<DataArray type="Float32" format="ascii">
0
</DataArray>
</Coordinates>
<CellData>
<DataArray Name="h" type="Float32" format="ascii">
14.9956
14.9897
14.9783
14.9585
14.9271
14.8811
14.8187
14.7392
14.6432
14.5321
14.408
14.273
14.1295
13.9797
13.8259
13.6702
13.5145
13.3611
13.2122
13.0699
12.9367
12.8149
12.7067
12.6138
12.5373
12.4772
12.4327
12.4018
12.3818
12.3699
12.3635
12.3604
12.3591
12.3588
12.3589
12.3591
12.3594
12.3596
12.3598
12.36
12.3601
12.3602
12.3603
12.3604
12.3605
12.3606
12.3606
12.3607
12.3607
12.3607
12.3607
12.3607
12.3608
12.3608
12.3607
12.3607
12.3607
12.3607
12.3607
12.3606
12.3606
12.3605
12.3605
12.3604
12.3603
12.3603
12.3602
12.3601
12.36
12.3599
12.3598
12.3597
12.3596
12.3595
12.3593
12.3592
12.359
12.3587
12.3584
12.3581
12.3575
12.3564
12.3536
12.3463
12.3257
12.2686
12.121
11.7964
11.2678
10.7062
10.3199
10.127
10.0468
10.0164
10.0055
10.0017
10.0005
10.0001
10
10
</DataArray>
<DataArray Name="hu" type="Float32" format="ascii">
0.0538239
0.124973
0.262345
0.50176
0.881282
1.43351
2.1785
3.12028
4.24769
5.53824
6.96289
8.49027
10.0895
11.7317
13.3902
15.0409
16.6612
18.2299
19.7268
21.1319
22.4261
23.5917
24.6134
25.48
26.1867
26.7368
27.1421
27.4227
27.6034
27.7107
27.7686
27.7961
27.8067
27.809
27.8077
27.8051
27.8024
27.7998
27.7974
27.7953
27.7933
27.7916
27.79
27.7885
27.7871
27.7858
27.7846
27.7835
27.7823
27.7813
27.7802
27.7792
27.7781
27.7771
27.7761
27.775
27.774
27.773
27.772
27.7709
27.7699
27.7689
27.7679
27.7668
27.7657
27.7645
27.7632
27.7619
27.7604
27.7588
27.7571
27.7552
27.7532
27.7511
27.7487
27.7461
27.7432
27.7401
27.7365
27.7317
27.724
27.7088
27.6719
27.5716
27.2904
26.5178
24.5473
20.335
13.844
7.41038
3.25673
1.2718
0.465084
0.162474
0.0543309
0.0172973
0.00520036
0.00146192
0.00038095
8.98872e-05
</DataArray>
</CellData>
</Piece>
</RectilinearGrid>
</VTKFile>
