<?xml version="1.0"?>
<VTKFile type="RectilinearGrid">
<RectilinearGrid WholeExtent="0 100 0 0 0 0">
<Piece Extent="0 100 0 0 0 0">
<Coordinates>
<DataArray type="Float32" format="ascii">
0
10
20
30
40
50
60
70
80
90
100
110
120
130
140
150
160
170
180
190
200
210
220
230
240
250
260
270
280
290
300
310
320
330
340
350
360
370
380
390
400
410
420
430
440
450
460
470
480
490
500
510
520
530
540
550
560
570
580
590
600
610
620
630
640
650
660
670
680
690
700
710
720
730
740
750
760
770
780
790
800
810
820
830
840
850
860
870
880
890
900
910
920
930
940
950
960
970
980
990
1000
</DataArray>
<DataArray type="Float32" format="ascii">
0
</DataArray>
<DataArray type="Float32" format="ascii">
0
</DataArray>
</Coordinates>
<CellData>
<DataArray Name="h" type="Float32" format="ascii">
5.29731
5.33582
5.25856
5.37348
5.21961
5.41091
5.18106
5.44685
5.14622
5.4782
5.12012
5.50143
5.10836
5.51457
5.11602
5.51992
5.14839
5.52715
5.21457
5.55704
5.33212
5.64127
5.52178
5.80082
5.7708
5.99762
6.00364
6.15137
6.15485
6.23238
6.22875
6.263
6.25685
6.26895
6.26278
6.26474
6.25924
6.2572
6.25253
6.24936
6.2455
6.24237
6.23922
6.23643
6.23377
6.23134
6.22908
6.22705
6.22523
6.22389
6.22327
6.22319
6.22341
6.22397
6.22488
6.22617
6.22786
6.22995
6.23245
6.23536
6.23865
6.2423
6.24628
6.25055
6.25506
6.25975
6.26456
6.2694
6.27419
6.27884
6.28327
6.28739
6.29113
6.29446
6.29735
6.29982
6.30191
6.30368
6.30521
6.30658
6.30784
6.30905
6.31016
6.31109
6.31154
6.31093
6.30802
6.30036
6.283
6.24622
6.17247
6.03757
5.82917
5.57786
5.34718
5.17933
5.07548
5.01767
4.98834
4.97627
</DataArray>
<DataArray Name="hu" type="Float32" format="ascii">
-1.41566
1.6291
-1.41761
2.04053
-1.56741
2.57868
-1.77778
3.15974
-1.96224
3.6945
-2.04262
4.09375
-1.96441
4.28072
-1.72571
4.19371
-1.40903
3.75744
-1.21712
2.81907
-1.50333
1.11877
-2.66378
-1.46228
-4.6355
-4.31526
-6.5047
-6.33955
-7.44514
-7.16145
-7.50537
-7.13668
-7.06772
-6.66962
-6.4044
-5.99939
-5.64728
-5.23956
-4.84975
-4.43863
-4.03203
-3.61733
-3.20319
-2.78624
-2.36925
-1.95129
-1.5328
-1.11321
-0.692373
-0.26779
0.158477
0.584048
1.01098
1.43914
1.86843
2.29879
2.73014
3.16241
3.59555
4.02948
4.46407
4.89915
5.33446
5.76966
6.20428
6.63771
7.06925
7.49807
7.92321
8.34361
8.75821
9.16593
9.56586
9.95727
10.3398
10.7134
11.0785
11.4356
11.7855
12.1291
12.467
12.7995
13.1263
13.4458
13.7544
14.0442
14.2991
14.4862
14.5395
14.3296
13.6235
12.1061
9.63554
6.63954
3.93668
2.03309
0.916725
0.350483
0.105377
0.0193803
</DataArray>
<DataArray Name="B" type="Float32" format="ascii">
-20.6
-20.2
-19.8
-19.4
-19
-18.6
-18.2
-17.8
-17.4
-17
-16.6
-16.2
-15.8
-15.4
-15
-14.6
-14.2
-13.8
-13.4
-13
-12.6
-12.2
-11.8
-11.4
-11
-10.6
-10.2
-9.8
-9.4
-9
-8.6
-8.2
-7.8
-7.4
-7
-6.6
-6.2
-5.8
-5.4
-5
-4.6
-4.2
-3.8
-3.4
-3
-2.6
-2.2
-1.8
-1.4
-1
-1.2
-1.4
-1.6
-1.8
-2
-2.2
-2.4
-2.6
-2.8
-3
-3.2
-3.4
-3.6
-3.8
-4
-4.2
-4.4
-4.6
-4.8
-5
-5.2
-5.4
-5.6
-5.8
-6
-6.2
-6.4
-6.6
-6.8
-7
-7.2
-7.4
-7.6
-7.8
-8
-8.2
-8.4
-8.6
-8.8
-9
-9.2
-9.4
-9.6
-9.8
-10
-10.2
-10.4
-10.6
-10.8
-11
</DataArray>
</CellData>
</Piece>
</RectilinearGrid>
</VTKFile>
