<?xml version="1.0"?>
<VTKFile type="RectilinearGrid">
<RectilinearGrid WholeExtent="0 100 0 0 0 0">
<Piece Extent="0 100 0 0 0 0">
<Coordinates>
<DataArray type="Float32" format="ascii">
0
10
20
30
40
50
60
70
80
90
100
110
120
130
140
150
160
170
180
190
200
210
220
230
240
250
260
270
280
290
300
310
320
330
340
350
360
370
380
390
400
410
420
430
440
450
460
470
480
490
500
510
520
530
540
550
560
570
580
590
600
610
620
630
640
650
660
670
680
690
700
710
720
730
740
750
760
770
780
790
800
810
820
830
840
850
860
870
880
890
900
910
920
930
940
950
960
970
980
990
1000
</DataArray>
<DataArray type="Float32" format="ascii">
0
</DataArray>
<DataArray type="Float32" format="ascii">
0
</DataArray>
</Coordinates>
<CellData>
<DataArray Name="h" type="Float32" format="ascii">
5.24231
5.20874
5.28489
5.18606
5.34125
5.18208
5.42266
5.21525
5.5456
5.31116
5.72159
5.47525
5.92252
5.6563
6.0764
5.79139
6.14721
5.87394
6.15558
5.92326
6.13171
5.95287
6.09581
5.9691
6.05882
5.97517
6.02562
5.97336
5.99762
5.966
5.97456
5.95526
5.95538
5.94282
5.9389
5.9298
5.92433
5.91709
5.91141
5.90537
5.90009
5.89493
5.89021
5.88574
5.88162
5.8778
5.87435
5.87127
5.86854
5.86638
5.86504
5.86431
5.86392
5.86388
5.86418
5.86484
5.86586
5.86726
5.86904
5.87121
5.87375
5.87666
5.87995
5.88361
5.88764
5.89203
5.8968
5.90192
5.9074
5.91323
5.91939
5.92587
5.93265
5.9397
5.947
5.9545
5.96218
5.96997
5.97784
5.98572
5.99356
6.00131
6.00892
6.01638
6.02371
6.03102
6.03862
6.04722
6.05823
6.07454
6.10172
6.15002
6.23674
6.38548
6.61173
6.88877
7.13945
7.30392
7.38691
7.41903
</DataArray>
<DataArray Name="hu" type="Float32" format="ascii">
1.37639
-1.40182
1.53963
-1.70799
1.70377
-2.38332
1.57894
-3.59767
0.766004
-5.56203
-1.07317
-8.17249
-3.65961
-10.5529
-5.97277
-11.784
-7.40705
-11.9035
-8.11846
-11.3786
-8.38468
-10.5702
-8.3662
-9.68295
-8.14422
-8.81503
-7.76964
-8.00116
-7.2821
-7.24046
-6.71439
-6.51754
-6.09411
-5.81693
-5.4425
-5.12686
-4.77233
-4.43815
-4.08852
-3.74398
-3.39287
-3.04189
-2.68786
-2.33283
-1.97592
-1.61752
-1.25723
-0.895046
-0.53101
-0.163307
0.205772
0.573604
0.941809
1.31023
1.67888
2.04786
2.41728
2.78727
3.15789
3.52918
3.90118
4.27391
4.64736
5.02153
5.39645
5.77211
6.14849
6.52555
6.90324
7.28146
7.66002
8.03875
8.41737
8.79552
9.17283
9.54881
9.9229
10.2945
10.6628
11.0271
11.3866
11.7402
12.0873
12.4268
12.7574
13.0775
13.3835
13.6678
13.9149
14.0927
14.1378
13.9304
13.2624
11.8349
9.4164
6.27298
3.34878
1.44211
0.512982
0.119206
</DataArray>
<DataArray Name="B" type="Float32" format="ascii">
-20.6
-20.2
-19.8
-19.4
-19
-18.6
-18.2
-17.8
-17.4
-17
-16.6
-16.2
-15.8
-15.4
-15
-14.6
-14.2
-13.8
-13.4
-13
-12.6
-12.2
-11.8
-11.4
-11
-10.6
-10.2
-9.8
-9.4
-9
-8.6
-8.2
-7.8
-7.4
-7
-6.6
-6.2
-5.8
-5.4
-5
-4.6
-4.2
-3.8
-3.4
-3
-2.6
-2.2
-1.8
-1.4
-1
-1.2
-1.4
-1.6
-1.8
-2
-2.2
-2.4
-2.6
-2.8
-3
-3.2
-3.4
-3.6
-3.8
-4
-4.2
-4.4
-4.6
-4.8
-5
-5.2
-5.4
-5.6
-5.8
-6
-6.2
-6.4
-6.6
-6.8
-7
-7.2
-7.4
-7.6
-7.8
-8
-8.2
-8.4
-8.6
-8.8
-9
-9.2
-9.4
-9.6
-9.8
-10
-10.2
-10.4
-10.6
-10.8
-11
</DataArray>
</CellData>
</Piece>
</RectilinearGrid>
</VTKFile>
