<?xml version="1.0"?>
<VTKFile type="RectilinearGrid">
<RectilinearGrid WholeExtent="0 100 0 0 0 0">
<Piece Extent="0 100 0 0 0 0">
<Coordinates>
<DataArray type="Float32" format="ascii">
0
10
20
30
40
50
60
70
80
90
100
110
120
130
140
150
160
170
180
190
200
210
220
230
240
250
260
270
280
290
300
310
320
330
340
350
360
370
380
390
400
410
420
430
440
450
460
470
480
490
500
510
520
530
540
550
560
570
580
590
600
610
620
630
640
650
660
670
680
690
700
710
720
730
740
750
760
770
780
790
800
810
820
830
840
850
860
870
880
890
900
910
920
930
940
950
960
970
980
990
1000
</DataArray>
<DataArray type="Float32" format="ascii">
0
</DataArray>
<DataArray type="Float32" format="ascii">
0
</DataArray>
</Coordinates>
<CellData>
<DataArray Name="h" type="Float32" format="ascii">
6.32228
6.32268
6.32354
6.32497
6.32691
6.32942
6.33247
6.33607
6.34021
6.34487
6.35007
6.35583
6.36222
6.3692
6.37685
6.38514
6.39414
6.40378
6.41413
6.42512
6.43679
6.44909
6.46202
6.47551
6.48961
6.50425
6.51944
6.53495
6.55052
6.56529
6.57713
6.57824
6.53992
6.38126
5.99983
5.48826
5.10729
4.92051
4.8433
4.81057
4.79491
4.78615
4.78038
4.77601
4.77234
4.76906
4.76602
4.76311
4.76026
4.75737
4.75443
4.75153
4.74871
4.74597
4.7434
4.74132
4.74063
4.74401
4.75914
4.80715
4.93925
5.24411
5.75957
6.3061
6.64359
6.76734
6.78515
6.7638
6.72922
6.69034
6.65027
6.61021
6.57067
6.53195
6.49431
6.45796
6.42311
6.38994
6.35855
6.32902
6.30135
6.27552
6.25148
6.22916
6.20851
6.18949
6.17206
6.15618
6.14182
6.12891
6.11741
6.10727
6.09844
6.09086
6.08451
6.07933
6.07529
6.07235
6.07048
6.0696
</DataArray>
<DataArray Name="hu" type="Float32" format="ascii">
0.357736
1.07492
1.79167
2.50922
3.22558
3.94223
4.65767
5.37284
6.08709
6.80045
7.51255
8.22241
8.93076
9.6358
10.3385
11.037
11.7322
12.4222
13.1077
13.7871
14.4607
15.1269
15.7852
16.4338
17.0712
17.6954
18.3035
18.8919
19.4539
19.979
20.4366
20.7197
20.4377
18.5285
13.8183
7.81695
3.67765
1.83944
1.19386
0.997938
0.955248
0.959988
0.973412
0.981213
0.978715
0.965229
0.941674
0.909554
0.87047
0.82573
0.777037
0.72578
0.672374
0.617233
0.560035
0.498678
0.425877
0.318979
0.110574
-0.390416
-1.67354
-4.69092
-10.1406
-16.4158
-20.6297
-22.3432
-22.7208
-22.5825
-22.2544
-21.8463
-21.3948
-20.9126
-20.4046
-19.8731
-19.3192
-18.7431
-18.1452
-17.5258
-16.8854
-16.2247
-15.5448
-14.8467
-14.1317
-13.401
-12.656
-11.8979
-11.1277
-10.3463
-9.55455
-8.75331
-7.94345
-7.1259
-6.30166
-5.4717
-4.63694
-3.79831
-2.95675
-2.11304
-1.26785
-0.422481
</DataArray>
<DataArray Name="B" type="Float32" format="ascii">
-20.6
-20.2
-19.8
-19.4
-19
-18.6
-18.2
-17.8
-17.4
-17
-16.6
-16.2
-15.8
-15.4
-15
-14.6
-14.2
-13.8
-13.4
-13
-12.6
-12.2
-11.8
-11.4
-11
-10.6
-10.2
-9.8
-9.4
-9
-8.6
-8.2
-7.8
-7.4
-7
-6.6
-6.2
-5.8
-5.4
-5
-4.6
-4.2
-3.8
-3.4
-3
-2.6
-2.2
-1.8
-1.4
-1
-1.2
-1.4
-1.6
-1.8
-2
-2.2
-2.4
-2.6
-2.8
-3
-3.2
-3.4
-3.6
-3.8
-4
-4.2
-4.4
-4.6
-4.8
-5
-5.2
-5.4
-5.6
-5.8
-6
-6.2
-6.4
-6.6
-6.8
-7
-7.2
-7.4
-7.6
-7.8
-8
-8.2
-8.4
-8.6
-8.8
-9
-9.2
-9.4
-9.6
-9.8
-10
-10.2
-10.4
-10.6
-10.8
-11
</DataArray>
</CellData>
</Piece>
</RectilinearGrid>
</VTKFile>
