<?xml version="1.0"?>
<VTKFile type="RectilinearGrid">
<RectilinearGrid WholeExtent="0 100 0 0 0 0">
<Piece Extent="0 100 0 0 0 0">
<Coordinates>
<DataArray type="Float32" format="ascii">
0
10
20
30
40
50
60
70
80
90
100
110
120
130
140
150
160
170
180
190
200
210
220
230
240
250
260
270
280
290
300
310
320
330
340
350
360
370
380
390
400
410
420
430
440
450
460
470
480
490
500
510
520
530
540
550
560
570
580
590
600
610
620
630
640
650
660
670
680
690
700
710
720
730
740
750
760
770
780
790
800
810
820
830
840
850
860
870
880
890
900
910
920
930
940
950
960
970
980
990
1000
</DataArray>
<DataArray type="Float32" format="ascii">
0
</DataArray>
<DataArray type="Float32" format="ascii">
0
</DataArray>
</Coordinates>
<CellData>
<DataArray Name="h" type="Float32" format="ascii">
5.46294
5.46742
5.47657
5.49051
5.50926
5.53282
5.56115
5.59419
5.63187
5.67405
5.72057
5.7712
5.82569
5.88376
5.94507
6.00932
6.07613
6.14516
6.21599
6.28814
6.36108
6.43421
6.50684
6.57817
6.64729
6.71314
6.77455
6.83034
6.8795
6.92132
6.95561
6.98275
7.00371
7.01971
7.0316
7.03805
7.03112
6.98513
6.83622
6.48498
5.92117
5.36463
5.02036
4.86774
4.81175
4.79306
4.78698
4.78479
4.7837
4.78287
4.78206
4.78128
4.78052
4.77978
4.77906
4.77834
4.77763
4.77693
4.77625
4.77561
4.77506
4.77476
4.77515
4.77731
4.78394
4.80138
4.84366
4.93877
5.13188
5.46404
5.90802
6.33846
6.63893
6.79909
6.86854
6.8913
6.89129
6.87922
6.85952
6.83411
6.80412
6.77049
6.73416
6.69609
6.65722
6.61841
6.58044
6.54393
6.50938
6.47718
6.44759
6.42082
6.397
6.37621
6.35846
6.34378
6.33213
6.3235
6.31788
6.31517
</DataArray>
<DataArray Name="hu" type="Float32" format="ascii">
0.46225
1.38775
2.31429
3.24081
4.16732
5.09415
6.02157
6.95014
7.88064
8.81385
9.75078
10.6926
11.6401
12.5941
13.5549
14.5222
15.495
16.4714
17.4492
18.4248
19.3934
20.3488
21.2825
22.1841
23.0409
23.8387
24.562
25.195
25.7235
26.138
26.4364
26.6261
26.7229
26.7454
26.705
26.5836
26.2749
25.4333
23.2281
18.5054
11.5843
5.37157
1.83951
0.363874
-0.162963
-0.342119
-0.407741
-0.438982
-0.460451
-0.479374
-0.497545
-0.515399
-0.533224
-0.551042
-0.568836
-0.586558
-0.604158
-0.621624
-0.638997
-0.656456
-0.674525
-0.694658
-0.720824
-0.763372
-0.848183
-1.03713
-1.47027
-2.43856
-4.44807
-8.05805
-13.173
-18.4515
-22.3579
-24.5571
-25.578
-25.9652
-26.025
-25.8927
-25.6202
-25.2249
-24.7127
-24.087
-23.352
-22.5136
-21.5786
-20.5547
-19.4494
-18.2704
-17.0253
-15.7213
-14.3655
-12.9644
-11.5241
-10.0503
-8.54853
-7.02371
-5.48062
-3.92366
-2.35703
-0.785903
</DataArray>
<DataArray Name="B" type="Float32" format="ascii">
-20.6
-20.2
-19.8
-19.4
-19
-18.6
-18.2
-17.8
-17.4
-17
-16.6
-16.2
-15.8
-15.4
-15
-14.6
-14.2
-13.8
-13.4
-13
-12.6
-12.2
-11.8
-11.4
-11
-10.6
-10.2
-9.8
-9.4
-9
-8.6
-8.2
-7.8
-7.4
-7
-6.6
-6.2
-5.8
-5.4
-5
-4.6
-4.2
-3.8
-3.4
-3
-2.6
-2.2
-1.8
-1.4
-1
-1.2
-1.4
-1.6
-1.8
-2
-2.2
-2.4
-2.6
-2.8
-3
-3.2
-3.4
-3.6
-3.8
-4
-4.2
-4.4
-4.6
-4.8
-5
-5.2
-5.4
-5.6
-5.8
-6
-6.2
-6.4
-6.6
-6.8
-7
-7.2
-7.4
-7.6
-7.8
-8
-8.2
-8.4
-8.6
-8.8
-9
-9.2
-9.4
-9.6
-9.8
-10
-10.2
-10.4
-10.6
-10.8
-11
</DataArray>
</CellData>
</Piece>
</RectilinearGrid>
</VTKFile>
