<?xml version="1.0"?>
<VTKFile type="RectilinearGrid">
<RectilinearGrid WholeExtent="0 100 0 0 0 0">
<Piece Extent="0 100 0 0 0 0">
<Coordinates>
<DataArray type="Float32" format="ascii">
0
10
20
30
40
50
60
70
80
90
100
110
120
130
140
150
160
170
180
190
200
210
220
230
240
250
260
270
280
290
300
310
320
330
340
350
360
370
380
390
400
410
420
430
440
450
460
470
480
490
500
510
520
530
540
550
560
570
580
590
600
610
620
630
640
650
660
670
680
690
700
710
720
730
740
750
760
770
780
790
800
810
820
830
840
850
860
870
880
890
900
910
920
930
940
950
960
970
980
990
1000
</DataArray>
<DataArray type="Float32" format="ascii">
0
</DataArray>
<DataArray type="Float32" format="ascii">
0
</DataArray>
</Coordinates>
<CellData>
<DataArray Name="h" type="Float32" format="ascii">
5.05337
5.05345
5.05362
5.05389
5.0543
5.05488
5.0557
5.05682
5.05834
5.06038
5.06307
5.06658
5.07109
5.07681
5.084
5.09291
5.10383
5.11705
5.13285
5.15151
5.17327
5.19837
5.22702
5.25937
5.29557
5.3357
5.3798
5.42788
5.47991
5.53582
5.59552
5.65891
5.72584
5.79615
5.86965
5.9461
6.02524
6.10673
6.19017
6.27512
6.361
6.44717
6.5328
6.61696
6.69872
6.77765
6.85497
6.93638
7.03989
7.21388
7.5476
8.1064
8.7828
9.32118
9.59245
9.62294
9.41866
8.92252
8.19327
7.51851
7.09482
6.87466
6.75286
6.6676
6.59368
6.52245
6.45131
6.37968
6.30761
6.23532
6.16308
6.09114
6.01975
5.94914
5.87952
5.81107
5.74399
5.67845
5.61462
5.55266
5.49274
5.43501
5.37961
5.32669
5.2764
5.22885
5.18417
5.14248
5.10387
5.06842
5.03621
5.00727
4.98165
4.95936
4.94038
4.92471
4.91229
4.90309
4.89703
4.89405
</DataArray>
<DataArray Name="hu" type="Float32" format="ascii">
-0.0147647
-0.0441049
-0.072682
-0.100025
-0.125491
-0.148423
-0.16788
-0.182734
-0.191698
-0.193098
-0.185037
-0.165371
-0.131698
-0.0812123
-0.010872
0.0825959
0.202519
0.352261
0.534916
0.753252
1.00978
1.30666
1.64548
2.0274
2.45309
2.92264
3.43562
3.99113
4.58791
5.22435
5.89862
6.60871
7.35242
8.12739
8.93104
9.7607
10.6135
11.4866
12.377
13.2815
14.197
15.12
16.047
16.9737
17.8937
18.795
19.6522
20.4096
20.9353
20.8862
19.5091
15.9566
10.6861
5.91763
3.00786
1.20319
-1.21701
-5.79319
-12.0258
-17.1478
-19.7064
-20.4212
-20.2628
-19.7519
-19.1013
-18.3904
-17.6494
-16.8916
-16.1239
-15.3511
-14.5771
-13.8049
-13.0373
-12.2769
-11.526
-10.7866
-10.0609
-9.35076
-8.65801
-7.98442
-7.33171
-6.70152
-6.09544
-5.51501
-4.96169
-4.4368
-3.94152
-3.47684
-3.04344
-2.64168
-2.27151
-1.93238
-1.62322
-1.3424
-1.08765
-0.856103
-0.644339
-0.448479
-0.264231
-0.0872262
</DataArray>
<DataArray Name="B" type="Float32" format="ascii">
-20.6
-20.2
-19.8
-19.4
-19
-18.6
-18.2
-17.8
-17.4
-17
-16.6
-16.2
-15.8
-15.4
-15
-14.6
-14.2
-13.8
-13.4
-13
-12.6
-12.2
-11.8
-11.4
-11
-10.6
-10.2
-9.8
-9.4
-9
-8.6
-8.2
-7.8
-7.4
-7
-6.6
-6.2
-5.8
-5.4
-5
-4.6
-4.2
-3.8
-3.4
-3
-2.6
-2.2
-1.8
-1.4
-1
-1.2
-1.4
-1.6
-1.8
-2
-2.2
-2.4
-2.6
-2.8
-3
-3.2
-3.4
-3.6
-3.8
-4
-4.2
-4.4
-4.6
-4.8
-5
-5.2
-5.4
-5.6
-5.8
-6
-6.2
-6.4
-6.6
-6.8
-7
-7.2
-7.4
-7.6
-7.8
-8
-8.2
-8.4
-8.6
-8.8
-9
-9.2
-9.4
-9.6
-9.8
-10
-10.2
-10.4
-10.6
-10.8
-11
</DataArray>
</CellData>
</Piece>
</RectilinearGrid>
</VTKFile>
