<?xml version="1.0"?>
<VTKFile type="RectilinearGrid">
<RectilinearGrid WholeExtent="0 100 0 0 0 0">
<Piece Extent="0 100 0 0 0 0">
<Coordinates>
<DataArray type="Float32" format="ascii">
0
10
20
30
40
50
60
70
80
90
100
110
120
130
140
150
160
170
180
190
200
210
220
230
240
250
260
270
280
290
300
310
320
330
340
350
360
370
380
390
400
410
420
430
440
450
460
470
480
490
500
510
520
530
540
550
560
570
580
590
600
610
620
630
640
650
660
670
680
690
700
710
720
730
740
750
760
770
780
790
800
810
820
830
840
850
860
870
880
890
900
910
920
930
940
950
960
970
980
990
1000
</DataArray>
<DataArray type="Float32" format="ascii">
0
</DataArray>
<DataArray type="Float32" format="ascii">
0
</DataArray>
</Coordinates>
<CellData>
<DataArray Name="h" type="Float32" format="ascii">
5.445
5.44545
5.44649
5.44796
5.45004
5.45258
5.4557
5.45934
5.46364
5.46861
5.47423
5.48064
5.48784
5.49565
5.50439
5.51379
5.52396
5.535
5.54692
5.55977
5.57371
5.58857
5.6046
5.62164
5.63982
5.65914
5.67956
5.70115
5.72391
5.74794
5.77325
5.79989
5.82786
5.85719
5.88785
5.91981
5.95297
5.98721
6.02237
6.05823
6.09447
6.13073
6.1667
6.20224
6.23765
6.27384
6.31291
6.35968
6.42582
6.5384
6.74224
7.07331
7.4918
7.86533
8.09962
8.2071
8.23291
8.18863
8.02221
7.63278
7.04576
6.5238
6.2228
6.08123
6.01069
5.96616
5.93085
5.89927
5.86972
5.84173
5.81513
5.78989
5.766
5.74345
5.72222
5.70227
5.68357
5.66607
5.64972
5.63449
5.62034
5.6072
5.59506
5.58386
5.57356
5.56412
5.5555
5.54765
5.54055
5.53416
5.52847
5.52344
5.51906
5.51529
5.51213
5.50954
5.50751
5.50602
5.50507
5.50463
</DataArray>
<DataArray Name="hu" type="Float32" format="ascii">
0.164565
0.494189
0.82413
1.15194
1.48047
1.8069
2.13292
2.45748
2.7815
3.10455
3.42554
3.74547
4.06411
4.37823
4.69239
5.00192
5.30816
5.61139
5.91129
6.20751
6.50196
6.79162
7.07956
7.36314
7.64351
7.92006
8.19199
8.45959
8.72284
8.98307
9.24019
9.4949
9.74706
9.99745
10.2464
10.4947
10.7432
10.9931
11.2461
11.5045
11.7716
12.0509
12.3447
12.6536
12.9741
13.2983
13.61
13.8753
14.0172
13.8472
12.9888
11.038
8.1497
5.41471
3.80912
3.30237
3.33857
3.265
2.15907
-1.12857
-6.15521
-10.2937
-12.3172
-12.946
-12.9773
-12.7941
-12.5379
-12.2551
-11.96
-11.657
-11.3471
-11.0305
-10.7073
-10.3775
-10.041
-9.69804
-9.34867
-8.9931
-8.63152
-8.26423
-7.89157
-7.51388
-7.1315
-6.74483
-6.35417
-5.95982
-5.56205
-5.16112
-4.75737
-4.35109
-3.94265
-3.53231
-3.12037
-2.70698
-2.29239
-1.87675
-1.46029
-1.04325
-0.625809
-0.208537
</DataArray>
<DataArray Name="B" type="Float32" format="ascii">
-20.6
-20.2
-19.8
-19.4
-19
-18.6
-18.2
-17.8
-17.4
-17
-16.6
-16.2
-15.8
-15.4
-15
-14.6
-14.2
-13.8
-13.4
-13
-12.6
-12.2
-11.8
-11.4
-11
-10.6
-10.2
-9.8
-9.4
-9
-8.6
-8.2
-7.8
-7.4
-7
-6.6
-6.2
-5.8
-5.4
-5
-4.6
-4.2
-3.8
-3.4
-3
-2.6
-2.2
-1.8
-1.4
-1
-1.2
-1.4
-1.6
-1.8
-2
-2.2
-2.4
-2.6
-2.8
-3
-3.2
-3.4
-3.6
-3.8
-4
-4.2
-4.4
-4.6
-4.8
-5
-5.2
-5.4
-5.6
-5.8
-6
-6.2
-6.4
-6.6
-6.8
-7
-7.2
-7.4
-7.6
-7.8
-8
-8.2
-8.4
-8.6
-8.8
-9
-9.2
-9.4
-9.6
-9.8
-10
-10.2
-10.4
-10.6
-10.8
-11
</DataArray>
</CellData>
</Piece>
</RectilinearGrid>
</VTKFile>
