<?xml version="1.0"?>
<VTKFile type="RectilinearGrid">
<RectilinearGrid WholeExtent="0 100 0 0 0 0">
<Piece Extent="0 100 0 0 0 0">
<Coordinates>
<DataArray type="Float32" format="ascii">
0
10
20
30
40
50
60
70
80
90
100
110
120
130
140
150
160
170
180
190
200
210
220
230
240
250
260
270
280
290
300
310
320
330
340
350
360
370
380
390
400
410
420
430
440
450
460
470
480
490
500
510
520
530
540
550
560
570
580
590
600
610
620
630
640
650
660
670
680
690
700
710
720
730
740
750
760
770
780
790
800
810
820
830
840
850
860
870
880
890
900
910
920
930
940
950
960
970
980
990
1000
</DataArray>
<DataArray type="Float32" format="ascii">
0
</DataArray>
<DataArray type="Float32" format="ascii">
0
</DataArray>
</Coordinates>
<CellData>
<DataArray Name="h" type="Float32" format="ascii">
7.25607
7.02923
6.81246
6.68148
6.60595
6.55757
6.5218
6.49171
6.4641
6.43742
6.41103
6.38459
6.35801
6.33124
6.3043
6.27718
6.24992
6.22255
6.1951
6.16761
6.14013
6.1127
6.08538
6.05822
6.03129
6.00465
5.97836
5.95251
5.92715
5.90236
5.87821
5.85479
5.83218
5.81045
5.78969
5.76995
5.75128
5.73375
5.71738
5.70222
5.68829
5.67561
5.66418
5.65399
5.645
5.63717
5.63046
5.62481
5.62016
5.61692
5.6153
5.61507
5.61584
5.6177
5.62075
5.62509
5.63084
5.63811
5.64699
5.65758
5.66996
5.6842
5.70032
5.71834
5.73825
5.76
5.78353
5.80875
5.83554
5.86378
5.89335
5.9241
5.95589
5.98857
6.02201
6.05607
6.09061
6.12551
6.16062
6.19582
6.23092
6.26566
6.29962
6.33201
6.36137
6.38481
6.39675
6.38685
6.33787
6.22721
6.03975
5.79198
5.53804
5.33351
5.19849
5.12136
5.08141
5.06207
5.05332
5.04999
</DataArray>
<DataArray Name="hu" type="Float32" format="ascii">
-6.69463
-16.7162
-21.6732
-23.7207
-24.414
-24.4907
-24.2793
-23.9303
-23.5139
-23.0649
-22.5995
-22.1264
-21.6492
-21.1702
-20.69
-20.2093
-19.728
-19.2462
-18.7634
-18.2795
-17.7941
-17.3068
-16.8171
-16.3245
-15.8285
-15.3283
-14.8234
-14.3133
-13.7974
-13.2751
-12.7458
-12.209
-11.664
-11.1105
-10.5481
-9.97652
-9.39566
-8.80543
-8.20588
-7.59709
-6.97925
-6.35269
-5.71786
-5.07541
-4.42614
-3.77093
-3.11065
-2.4462
-1.77844
-1.10441
-0.428906
0.242639
0.912612
1.57954
2.24197
2.89856
3.54802
4.1892
4.82106
5.44268
6.05323
6.65199
7.23837
7.81194
8.37242
8.91979
9.45424
9.9762
10.4863
10.9853
11.4741
11.9536
12.425
12.8891
13.3471
13.7999
14.2485
14.6934
15.1352
15.5738
16.0085
16.4374
16.8558
17.2544
17.6143
17.8972
18.0281
17.8671
17.1821
15.6749
13.1644
9.90351
6.61643
3.9953
2.2584
1.24017
0.678308
0.367877
0.183614
0.0558911
</DataArray>
<DataArray Name="B" type="Float32" format="ascii">
-20.6
-20.2
-19.8
-19.4
-19
-18.6
-18.2
-17.8
-17.4
-17
-16.6
-16.2
-15.8
-15.4
-15
-14.6
-14.2
-13.8
-13.4
-13
-12.6
-12.2
-11.8
-11.4
-11
-10.6
-10.2
-9.8
-9.4
-9
-8.6
-8.2
-7.8
-7.4
-7
-6.6
-6.2
-5.8
-5.4
-5
-4.6
-4.2
-3.8
-3.4
-3
-2.6
-2.2
-1.8
-1.4
-1
-1.2
-1.4
-1.6
-1.8
-2
-2.2
-2.4
-2.6
-2.8
-3
-3.2
-3.4
-3.6
-3.8
-4
-4.2
-4.4
-4.6
-4.8
-5
-5.2
-5.4
-5.6
-5.8
-6
-6.2
-6.4
-6.6
-6.8
-7
-7.2
-7.4
-7.6
-7.8
-8
-8.2
-8.4
-8.6
-8.8
-9
-9.2
-9.4
-9.6
-9.8
-10
-10.2
-10.4
-10.6
-10.8
-11
</DataArray>
</CellData>
</Piece>
</RectilinearGrid>
</VTKFile>
