<?xml version="1.0"?>
<VTKFile type="RectilinearGrid">
<RectilinearGrid WholeExtent="0 100 0 0 0 0">
<Piece Extent="0 100 0 0 0 0">
<Coordinates>
<DataArray type="Float32" format="ascii">
0
10
20
30
40
50
60
70
80
90
100
110
120
130
140
150
160
170
180
190
200
210
220
230
240
250
260
270
280
290
300
310
320
330
340
350
360
370
380
390
400
410
420
430
440
450
460
470
480
490
500
510
520
530
540
550
560
570
580
590
600
610
620
630
640
650
660
670
680
690
700
710
720
730
740
750
760
770
780
790
800
810
820
830
840
850
860
870
880
890
900
910
920
930
940
950
960
970
980
990
1000
</DataArray>
<DataArray type="Float32" format="ascii">
0
</DataArray>
<DataArray type="Float32" format="ascii">
0
</DataArray>
</Coordinates>
<CellData>
<DataArray Name="h" type="Float32" format="ascii">
5.57926
5.58363
5.59259
5.6063
5.62478
5.64808
5.67617
5.70903
5.74656
5.78867
5.83518
5.88589
5.94055
5.99883
6.06036
6.12474
6.19153
6.26024
6.33033
6.4012
6.47212
6.54226
6.61066
6.67627
6.73795
6.79453
6.84492
6.88824
6.92406
6.95258
6.97466
6.99159
7.00454
7.01368
7.01594
6.99882
6.92562
6.71607
6.28263
5.69768
5.21371
4.95025
4.84102
4.802
4.78904
4.78475
4.78312
4.78223
4.7815
4.78075
4.77997
4.77919
4.77844
4.7777
4.77698
4.77627
4.77558
4.7749
4.77423
4.77357
4.77294
4.77239
4.77202
4.77215
4.77359
4.77835
4.79122
4.82292
4.89559
5.04799
5.32621
5.73494
6.1818
6.53399
6.74204
6.8417
6.88194
6.89341
6.89076
6.88028
6.86459
6.84493
6.82209
6.79684
6.76994
6.74217
6.71424
6.68676
6.66026
6.63514
6.61175
6.59035
6.57111
6.55417
6.53961
6.52749
6.51784
6.51069
6.50604
6.50381
</DataArray>
<DataArray Name="hu" type="Float32" format="ascii">
0.535339
1.60658
2.67741
3.74577
4.81083
5.87207
6.92925
7.98226
9.03109
10.0758
11.1163
12.1528
13.1855
14.2144
15.2395
16.2604
17.2757
18.2831
19.2787
20.2577
21.213
22.1361
23.0163
23.8402
24.5928
25.258
25.8212
26.2719
26.606
26.8281
26.9515
26.9949
26.9767
26.9012
26.7266
26.28
25.0638
22.0519
16.342
9.29034
3.94436
1.23587
0.162558
-0.21627
-0.347843
-0.399434
-0.426888
-0.447481
-0.466197
-0.484468
-0.5025
-0.520338
-0.538189
-0.556061
-0.57393
-0.591744
-0.609448
-0.626995
-0.644369
-0.66161
-0.678854
-0.696484
-0.715563
-0.739005
-0.774506
-0.841534
-0.987062
-1.31869
-2.06546
-3.65251
-6.65422
-11.2999
-16.69
-21.1866
-23.9746
-25.3632
-25.9376
-26.0872
-25.9981
-25.7448
-25.3522
-24.8278
-24.175
-23.3978
-22.5022
-21.4963
-20.3892
-19.1911
-17.9119
-16.5613
-15.1482
-13.6813
-12.1685
-10.617
-9.03356
-7.42422
-5.79438
-4.149
-2.49272
-0.831207
</DataArray>
<DataArray Name="B" type="Float32" format="ascii">
-20.6
-20.2
-19.8
-19.4
-19
-18.6
-18.2
-17.8
-17.4
-17
-16.6
-16.2
-15.8
-15.4
-15
-14.6
-14.2
-13.8
-13.4
-13
-12.6
-12.2
-11.8
-11.4
-11
-10.6
-10.2
-9.8
-9.4
-9
-8.6
-8.2
-7.8
-7.4
-7
-6.6
-6.2
-5.8
-5.4
-5
-4.6
-4.2
-3.8
-3.4
-3
-2.6
-2.2
-1.8
-1.4
-1
-1.2
-1.4
-1.6
-1.8
-2
-2.2
-2.4
-2.6
-2.8
-3
-3.2
-3.4
-3.6
-3.8
-4
-4.2
-4.4
-4.6
-4.8
-5
-5.2
-5.4
-5.6
-5.8
-6
-6.2
-6.4
-6.6
-6.8
-7
-7.2
-7.4
-7.6
-7.8
-8
-8.2
-8.4
-8.6
-8.8
-9
-9.2
-9.4
-9.6
-9.8
-10
-10.2
-10.4
-10.6
-10.8
-11
</DataArray>
</CellData>
</Piece>
</RectilinearGrid>
</VTKFile>
