<?xml version="1.0"?>
<VTKFile type="RectilinearGrid">
<RectilinearGrid WholeExtent="0 100 0 0 0 0">
<Piece Extent="0 100 0 0 0 0">
<Coordinates>
<DataArray type="Float32" format="ascii">
0
10
20
30
40
50
60
70
80
90
100
110
120
130
140
150
160
170
180
190
200
210
220
230
240
250
260
270
280
290
300
310
320
330
340
350
360
370
380
390
400
410
420
430
440
450
460
470
480
490
500
510
520
530
540
550
560
570
580
590
600
610
620
630
640
650
660
670
680
690
700
710
720
730
740
750
760
770
780
790
800
810
820
830
840
850
860
870
880
890
900
910
920
930
940
950
960
970
980
990
1000
</DataArray>
<DataArray type="Float32" format="ascii">
0
</DataArray>
<DataArray type="Float32" format="ascii">
0
</DataArray>
</Coordinates>
<CellData>
<DataArray Name="h" type="Float32" format="ascii">
4.98723
4.98737
4.98767
4.98815
4.98895
4.99022
4.9924
4.99635
5.00388
5.01887
5.04951
5.11312
5.24477
5.50107
5.90975
6.3375
6.58322
6.66483
6.68183
6.67687
6.66335
6.64616
6.62743
6.60818
6.58894
6.57003
6.55163
6.53385
6.51676
6.50042
6.48488
6.47018
6.45634
6.44339
6.43133
6.42013
6.40977
6.40025
6.39156
6.38372
6.37675
6.37065
6.3654
6.36097
6.35729
6.35428
6.3518
6.34972
6.34784
6.34649
6.34569
6.34518
6.3446
6.34411
6.34382
6.34388
6.3444
6.3455
6.34729
6.34987
6.35334
6.35781
6.36336
6.3701
6.37811
6.38747
6.39824
6.41044
6.42407
6.43903
6.45512
6.47184
6.48815
6.50188
6.50839
6.49792
6.45102
6.33519
6.11774
5.8111
5.49817
5.26258
5.12143
5.04788
5.01214
4.99521
4.98712
4.98311
4.98097
4.97971
4.97888
4.9783
4.97786
4.97752
4.97726
4.97707
4.97691
4.9768
4.97672
4.97668
</DataArray>
<DataArray Name="hu" type="Float32" format="ascii">
-0.0115349
-0.0346418
-0.0576165
-0.0810203
-0.105358
-0.133307
-0.170045
-0.227601
-0.331767
-0.537196
-0.960055
-1.84724
-3.70021
-7.35026
-13.2674
-19.5546
-23.1238
-24.1545
-24.1668
-23.8234
-23.3312
-22.7656
-22.1585
-21.5248
-20.8721
-20.2041
-19.523
-18.8301
-18.1261
-17.4115
-16.6867
-15.9519
-15.2073
-14.4534
-13.6905
-12.9195
-12.1411
-11.3556
-10.5634
-9.76458
-8.95919
-8.14733
-7.32924
-6.50536
-5.67627
-4.8427
-4.00542
-3.16516
-2.32251
-1.47351
-0.622593
0.225421
1.07423
1.9229
2.77041
3.61576
4.45798
5.29618
6.12956
6.95733
7.77868
8.59277
9.39863
10.1953
10.9816
11.7567
12.5195
13.2689
14.0034
14.7209
15.4178
16.0874
16.7165
17.2775
17.7114
17.8938
17.5764
16.3511
13.8354
10.2523
6.65636
4.00795
2.44717
1.63852
1.24024
1.0399
0.927883
0.852197
0.78947
0.729722
0.669015
0.606015
0.54054
0.472787
0.403081
0.33179
0.259238
0.185775
0.111672
0.0372432
</DataArray>
<DataArray Name="B" type="Float32" format="ascii">
-20.6
-20.2
-19.8
-19.4
-19
-18.6
-18.2
-17.8
-17.4
-17
-16.6
-16.2
-15.8
-15.4
-15
-14.6
-14.2
-13.8
-13.4
-13
-12.6
-12.2
-11.8
-11.4
-11
-10.6
-10.2
-9.8
-9.4
-9
-8.6
-8.2
-7.8
-7.4
-7
-6.6
-6.2
-5.8
-5.4
-5
-4.6
-4.2
-3.8
-3.4
-3
-2.6
-2.2
-1.8
-1.4
-1
-1.2
-1.4
-1.6
-1.8
-2
-2.2
-2.4
-2.6
-2.8
-3
-3.2
-3.4
-3.6
-3.8
-4
-4.2
-4.4
-4.6
-4.8
-5
-5.2
-5.4
-5.6
-5.8
-6
-6.2
-6.4
-6.6
-6.8
-7
-7.2
-7.4
-7.6
-7.8
-8
-8.2
-8.4
-8.6
-8.8
-9
-9.2
-9.4
-9.6
-9.8
-10
-10.2
-10.4
-10.6
-10.8
-11
</DataArray>
</CellData>
</Piece>
</RectilinearGrid>
</VTKFile>
