<?xml version="1.0"?>
<VTKFile type="RectilinearGrid">
<RectilinearGrid WholeExtent="0 100 0 0 0 0">
<Piece Extent="0 100 0 0 0 0">
<Coordinates>
<DataArray type="Float32" format="ascii">
0
10
20
30
40
50
60
70
80
90
100
110
120
130
140
150
160
170
180
190
200
210
220
230
240
250
260
270
280
290
300
310
320
330
340
350
360
370
380
390
400
410
420
430
440
450
460
470
480
490
500
510
520
530
540
550
560
570
580
590
600
610
620
630
640
650
660
670
680
690
700
710
720
730
740
750
760
770
780
790
800
810
820
830
840
850
860
870
880
890
900
910
920
930
940
950
960
970
980
990
1000
</DataArray>
<DataArray type="Float32" format="ascii">
0
</DataArray>
<DataArray type="Float32" format="ascii">
0
</DataArray>
</Coordinates>
<CellData>
<DataArray Name="h" type="Float32" format="ascii">
6.46977
6.5915
6.64
6.62229
6.59373
6.56648
6.54068
6.5155
6.49029
6.46485
6.43906
6.41295
6.38653
6.35986
6.33297
6.3059
6.27868
6.25136
6.22398
6.19658
6.16921
6.14192
6.11476
6.0878
6.06109
6.03472
6.00873
5.98321
5.95821
5.93381
5.91009
5.88714
5.86501
5.8438
5.82357
5.80436
5.78625
5.76926
5.75343
5.7388
5.72539
5.71321
5.70224
5.69247
5.68386
5.67635
5.66991
5.66448
5.66
5.65687
5.65529
5.65501
5.65564
5.65727
5.66001
5.66397
5.66926
5.676
5.6843
5.69427
5.70597
5.71949
5.73487
5.75212
5.77126
5.79224
5.81502
5.83952
5.86563
5.89325
5.92224
5.95247
5.9838
6.01609
6.0492
6.08297
6.11727
6.15196
6.18688
6.22186
6.25665
6.29086
6.32384
6.35432
6.37989
6.39579
6.39304
6.356
6.26229
6.09233
5.85281
5.59178
5.37036
5.21864
5.12995
5.08341
5.06066
5.05011
5.0455
5.04379
</DataArray>
<DataArray Name="hu" type="Float32" format="ascii">
-6.75961
-17.5354
-22.8006
-24.5801
-25.0446
-25.0001
-24.7317
-24.3564
-23.9285
-23.4734
-23.0045
-22.5279
-22.0473
-21.5643
-21.0798
-20.5942
-20.1076
-19.6199
-19.1309
-18.6402
-18.1476
-17.6526
-17.1546
-16.6533
-16.1479
-15.638
-15.123
-14.6023
-14.0753
-13.5417
-13.0006
-12.4516
-11.8943
-11.3281
-10.7528
-10.1683
-9.57455
-8.97142
-8.35901
-7.73748
-7.10702
-6.46801
-5.82093
-5.16647
-4.50543
-3.83863
-3.16691
-2.49103
-1.81182
-1.12625
-0.439156
0.244021
0.925734
1.60454
2.27906
2.94797
3.61006
4.26418
4.90932
5.54456
6.16903
6.78195
7.38268
7.97066
8.54554
9.10717
9.65563
10.1913
10.7146
11.2263
11.7273
12.2184
12.7007
13.1751
13.6426
14.1042
14.5607
15.0128
15.4607
15.9041
16.3416
16.7695
17.1804
17.5586
17.8723
18.0583
17.9956
17.474
16.197
13.9201
10.7667
7.38969
4.56047
2.62184
1.46507
0.824325
0.474086
0.272845
0.143185
0.0448197
</DataArray>
<DataArray Name="B" type="Float32" format="ascii">
-20.6
-20.2
-19.8
-19.4
-19
-18.6
-18.2
-17.8
-17.4
-17
-16.6
-16.2
-15.8
-15.4
-15
-14.6
-14.2
-13.8
-13.4
-13
-12.6
-12.2
-11.8
-11.4
-11
-10.6
-10.2
-9.8
-9.4
-9
-8.6
-8.2
-7.8
-7.4
-7
-6.6
-6.2
-5.8
-5.4
-5
-4.6
-4.2
-3.8
-3.4
-3
-2.6
-2.2
-1.8
-1.4
-1
-1.2
-1.4
-1.6
-1.8
-2
-2.2
-2.4
-2.6
-2.8
-3
-3.2
-3.4
-3.6
-3.8
-4
-4.2
-4.4
-4.6
-4.8
-5
-5.2
-5.4
-5.6
-5.8
-6
-6.2
-6.4
-6.6
-6.8
-7
-7.2
-7.4
-7.6
-7.8
-8
-8.2
-8.4
-8.6
-8.8
-9
-9.2
-9.4
-9.6
-9.8
-10
-10.2
-10.4
-10.6
-10.8
-11
</DataArray>
</CellData>
</Piece>
</RectilinearGrid>
</VTKFile>
