<?xml version="1.0"?>
<VTKFile type="RectilinearGrid">
<RectilinearGrid WholeExtent="0 100 0 0 0 0">
<Piece Extent="0 100 0 0 0 0">
<Coordinates>
<DataArray type="Float32" format="ascii">
0
10
20
30
40
50
60
70
80
90
100
110
120
130
140
150
160
170
180
190
200
210
220
230
240
250
260
270
280
290
300
310
320
330
340
350
360
370
380
390
400
410
420
430
440
450
460
470
480
490
500
510
520
530
540
550
560
570
580
590
600
610
620
630
640
650
660
670
680
690
700
710
720
730
740
750
760
770
780
790
800
810
820
830
840
850
860
870
880
890
900
910
920
930
940
950
960
970
980
990
1000
</DataArray>
<DataArray type="Float32" format="ascii">
0
</DataArray>
<DataArray type="Float32" format="ascii">
0
</DataArray>
</Coordinates>
<CellData>
<DataArray Name="h" type="Float32" format="ascii">
7.69998
7.69744
7.69233
7.68436
7.67297
7.65752
7.63728
7.61162
7.58014
7.54276
7.49994
7.45267
7.40235
7.35057
7.29878
7.2481
7.19916
7.15181
7.1041
7.04865
6.96273
6.79063
6.45057
5.94209
5.43752
5.09694
4.92015
4.83931
4.80307
4.78589
4.77688
4.77162
4.76831
4.76615
4.76475
4.76383
4.76324
4.76285
4.76257
4.76235
4.76213
4.76189
4.76162
4.7613
4.76094
4.76053
4.76008
4.75959
4.75906
4.75846
4.75781
4.75716
4.75652
4.75591
4.75532
4.75477
4.75425
4.75375
4.7533
4.75292
4.75267
4.75265
4.75303
4.75404
4.75603
4.75947
4.76489
4.77296
4.78434
4.7997
4.81964
4.84462
4.87495
4.91077
4.95206
4.99867
5.05036
5.10695
5.1685
5.23578
5.31128
5.40122
5.51913
5.69033
5.95188
6.33376
6.81461
7.30194
7.69759
7.97282
8.15628
8.28599
8.38728
8.4727
8.54701
8.61116
8.66443
8.70563
8.7337
8.7479
</DataArray>
<DataArray Name="hu" type="Float32" format="ascii">
1.08108
3.23621
5.36578
7.44913
9.46613
11.3964
13.2195
14.9168
16.4739
17.8823
19.143
20.2655
21.2667
22.1661
22.9815
23.7253
24.4014
25.0011
25.4874
25.7407
25.4096
23.6638
19.3696
12.7666
6.46334
2.50171
0.658629
-0.0352458
-0.244388
-0.280813
-0.268534
-0.25124
-0.2416
-0.241263
-0.248558
-0.261264
-0.277464
-0.295736
-0.31511
-0.334998
-0.355067
-0.375161
-0.395223
-0.41522
-0.435111
-0.454847
-0.474376
-0.493672
-0.51274
-0.531687
-0.550367
-0.568702
-0.586852
-0.604819
-0.622604
-0.640189
-0.657524
-0.67453
-0.691073
-0.706907
-0.721574
-0.734248
-0.74351
-0.747098
-0.741698
-0.722801
-0.684686
-0.620624
-0.523252
-0.385091
-0.199106
0.0407802
0.339288
0.699607
1.12332
1.61042
2.15933
2.7663
3.42378
4.11583
4.80762
5.42328
5.80518
5.65744
4.52585
1.98009
-1.85653
-5.92944
-8.94338
-10.4153
-10.6626
-10.1852
-9.33672
-8.30456
-7.17245
-5.97284
-4.71705
-3.41138
-2.06468
-0.691222
</DataArray>
<DataArray Name="B" type="Float32" format="ascii">
-20.6
-20.2
-19.8
-19.4
-19
-18.6
-18.2
-17.8
-17.4
-17
-16.6
-16.2
-15.8
-15.4
-15
-14.6
-14.2
-13.8
-13.4
-13
-12.6
-12.2
-11.8
-11.4
-11
-10.6
-10.2
-9.8
-9.4
-9
-8.6
-8.2
-7.8
-7.4
-7
-6.6
-6.2
-5.8
-5.4
-5
-4.6
-4.2
-3.8
-3.4
-3
-2.6
-2.2
-1.8
-1.4
-1
-1.2
-1.4
-1.6
-1.8
-2
-2.2
-2.4
-2.6
-2.8
-3
-3.2
-3.4
-3.6
-3.8
-4
-4.2
-4.4
-4.6
-4.8
-5
-5.2
-5.4
-5.6
-5.8
-6
-6.2
-6.4
-6.6
-6.8
-7
-7.2
-7.4
-7.6
-7.8
-8
-8.2
-8.4
-8.6
-8.8
-9
-9.2
-9.4
-9.6
-9.8
-10
-10.2
-10.4
-10.6
-10.8
-11
</DataArray>
</CellData>
</Piece>
</RectilinearGrid>
</VTKFile>
