<?xml version="1.0"?>
<VTKFile type="RectilinearGrid">
<RectilinearGrid WholeExtent="0 100 0 0 0 0">
<Piece Extent="0 100 0 0 0 0">
<Coordinates>
<DataArray type="Float32" format="ascii">
0
10
20
30
40
50
60
70
80
90
100
110
120
130
140
150
160
170
180
190
200
210
220
230
240
250
260
270
280
290
300
310
320
330
340
350
360
370
380
390
400
410
420
430
440
450
460
470
480
490
500
510
520
530
540
550
560
570
580
590
600
610
620
630
640
650
660
670
680
690
700
710
720
730
740
750
760
770
780
790
800
810
820
830
840
850
860
870
880
890
900
910
920
930
940
950
960
970
980
990
1000
</DataArray>
<DataArray type="Float32" format="ascii">
0
</DataArray>
<DataArray type="Float32" format="ascii">
0
</DataArray>
</Coordinates>
<CellData>
<DataArray Name="h" type="Float32" format="ascii">
5.85116
5.81885
5.88412
5.7867
5.91875
5.75379
5.95485
5.72127
5.99042
5.69269
6.02131
5.67279
6.04329
5.66616
6.05345
5.67478
6.05219
5.69696
6.04262
5.72831
6.02943
5.76431
6.01587
5.80243
6.00348
5.84143
5.99456
5.8799
5.99085
5.91668
5.99366
5.95121
6.00342
5.98377
6.01973
6.01545
6.04173
6.04754
6.06903
6.08093
6.10031
6.11537
6.13346
6.14942
6.16628
6.18228
6.1991
6.21676
6.23675
6.26065
6.29214
6.33642
6.40478
6.51404
6.67657
6.87164
7.01341
6.97428
6.70946
6.36241
6.10844
5.97764
5.91955
5.89184
5.87479
5.86125
5.84902
5.8375
5.82654
5.81612
5.80621
5.7968
5.78787
5.7794
5.77137
5.76377
5.75656
5.74974
5.7433
5.73721
5.73148
5.72609
5.72104
5.71631
5.71188
5.70777
5.70395
5.70045
5.69725
5.69437
5.6918
5.68954
5.68757
5.68588
5.68446
5.6833
5.68238
5.68172
5.68131
5.68112
</DataArray>
<DataArray Name="hu" type="Float32" format="ascii">
1.31827
-0.836119
2.00369
-0.538658
2.8393
-0.365671
3.75049
-0.245306
4.66825
-0.0958161
5.51209
0.165567
6.21042
0.603416
6.71709
1.23481
7.03885
2.02369
7.22556
2.90133
7.3506
3.8047
7.46544
4.701
7.59242
5.57218
7.7576
6.39506
7.97484
7.15199
8.25447
7.83781
8.5958
8.45486
8.98186
9.00948
9.38859
9.51289
9.80865
9.98524
10.2422
10.4512
10.6999
10.9357
11.1926
11.447
11.7072
11.9592
12.1996
12.4131
12.5746
12.6334
12.491
11.9693
10.8211
8.82018
5.8389
1.78506
-3.0098
-7.21693
-9.74753
-10.809
-11.0733
-10.9959
-10.7871
-10.5288
-10.2506
-9.96339
-9.67111
-9.37554
-9.07754
-8.7776
-8.47604
-8.1731
-7.86896
-7.56377
-7.25764
-6.95067
-6.64293
-6.3345
-6.02543
-5.71579
-5.40569
-5.09523
-4.78456
-4.47387
-4.16328
-3.8529
-3.54279
-3.23299
-2.92355
-2.61451
-2.30589
-1.99766
-1.68981
-1.38225
-1.07486
-0.767552
-0.460339
-0.153376
</DataArray>
<DataArray Name="B" type="Float32" format="ascii">
-20.6
-20.2
-19.8
-19.4
-19
-18.6
-18.2
-17.8
-17.4
-17
-16.6
-16.2
-15.8
-15.4
-15
-14.6
-14.2
-13.8
-13.4
-13
-12.6
-12.2
-11.8
-11.4
-11
-10.6
-10.2
-9.8
-9.4
-9
-8.6
-8.2
-7.8
-7.4
-7
-6.6
-6.2
-5.8
-5.4
-5
-4.6
-4.2
-3.8
-3.4
-3
-2.6
-2.2
-1.8
-1.4
-1
-1.2
-1.4
-1.6
-1.8
-2
-2.2
-2.4
-2.6
-2.8
-3
-3.2
-3.4
-3.6
-3.8
-4
-4.2
-4.4
-4.6
-4.8
-5
-5.2
-5.4
-5.6
-5.8
-6
-6.2
-6.4
-6.6
-6.8
-7
-7.2
-7.4
-7.6
-7.8
-8
-8.2
-8.4
-8.6
-8.8
-9
-9.2
-9.4
-9.6
-9.8
-10
-10.2
-10.4
-10.6
-10.8
-11
</DataArray>
</CellData>
</Piece>
</RectilinearGrid>
</VTKFile>
