<?xml version="1.0"?>
<VTKFile type="RectilinearGrid">
<RectilinearGrid WholeExtent="0 100 0 0 0 0">
<Piece Extent="0 100 0 0 0 0">
<Coordinates>
<DataArray type="Float32" format="ascii">
0
10
20
30
40
50
60
70
80
90
100
110
120
130
140
150
160
170
180
190
200
210
220
230
240
250
260
270
280
290
300
310
320
330
340
350
360
370
380
390
400
410
420
430
440
450
460
470
480
490
500
510
520
530
540
550
560
570
580
590
600
610
620
630
640
650
660
670
680
690
700
710
720
730
740
750
760
770
780
790
800
810
820
830
840
850
860
870
880
890
900
910
920
930
940
950
960
970
980
990
1000
</DataArray>
<DataArray type="Float32" format="ascii">
0
</DataArray>
<DataArray type="Float32" format="ascii">
0
</DataArray>
</Coordinates>
<CellData>
<DataArray Name="h" type="Float32" format="ascii">
5.51879
5.48983
5.55272
5.46633
5.59361
5.45015
5.64481
5.44728
5.70935
5.4676
5.78971
5.52111
5.88475
5.60978
5.98408
5.71998
6.06801
5.82794
6.11997
5.91555
6.13839
5.97739
6.13289
6.01592
6.11483
6.03585
6.09232
6.04199
6.06975
6.03856
6.0487
6.02904
6.02943
6.01605
6.0116
6.00139
5.99486
5.98619
5.97896
5.97109
5.96379
5.9564
5.9493
5.94227
5.9354
5.92864
5.92199
5.9154
5.90885
5.90251
5.89684
5.89187
5.88745
5.88358
5.88025
5.87746
5.87521
5.87351
5.87234
5.87169
5.87155
5.8719
5.8727
5.87394
5.87558
5.8776
5.87997
5.88267
5.88566
5.88891
5.8924
5.8961
5.89997
5.90397
5.90807
5.91223
5.9164
5.92054
5.9246
5.92855
5.93237
5.93604
5.9396
5.94311
5.94674
5.95076
5.95572
5.96259
5.97302
5.98977
6.01732
6.06239
6.13403
6.2416
6.38839
6.56204
6.7322
6.86662
6.95117
6.98979
</DataArray>
<DataArray Name="hu" type="Float32" format="ascii">
1.18608
-1.0845
1.45809
-1.18431
1.79903
-1.48793
2.07129
-2.0065
2.10584
-2.7606
1.72302
-3.7517
0.811958
-4.89083
-0.542838
-5.94675
-2.03094
-6.64219
-3.308
-6.86017
-4.20013
-6.68391
-4.70338
-6.27117
-4.88455
-5.75381
-4.82221
-5.20937
-4.58636
-4.67111
-4.23503
-4.14621
-3.81091
-3.63084
-3.34353
-3.11875
-2.8508
-2.605
-2.34263
-2.08656
-1.82394
-1.56201
-1.29696
-1.0309
-0.762828
-0.493338
-0.222228
0.0503353
0.324378
0.60171
0.881193
1.16088
1.44196
1.72441
2.00823
2.29347
2.58017
2.86834
3.158
3.44909
3.74155
4.03527
4.33013
4.62601
4.92278
5.2203
5.51847
5.81715
6.1162
6.41546
6.71475
7.01383
7.31244
7.61024
7.90686
8.20184
8.49468
8.78484
9.07178
9.35489
9.63362
9.90735
10.1754
10.4366
10.6894
10.9306
11.1544
11.3502
11.4994
11.5699
11.5088
11.2343
10.6325
9.57727
8.00349
6.0307
4.00977
2.33101
1.14733
0.338515
</DataArray>
<DataArray Name="B" type="Float32" format="ascii">
-20.6
-20.2
-19.8
-19.4
-19
-18.6
-18.2
-17.8
-17.4
-17
-16.6
-16.2
-15.8
-15.4
-15
-14.6
-14.2
-13.8
-13.4
-13
-12.6
-12.2
-11.8
-11.4
-11
-10.6
-10.2
-9.8
-9.4
-9
-8.6
-8.2
-7.8
-7.4
-7
-6.6
-6.2
-5.8
-5.4
-5
-4.6
-4.2
-3.8
-3.4
-3
-2.6
-2.2
-1.8
-1.4
-1
-1.2
-1.4
-1.6
-1.8
-2
-2.2
-2.4
-2.6
-2.8
-3
-3.2
-3.4
-3.6
-3.8
-4
-4.2
-4.4
-4.6
-4.8
-5
-5.2
-5.4
-5.6
-5.8
-6
-6.2
-6.4
-6.6
-6.8
-7
-7.2
-7.4
-7.6
-7.8
-8
-8.2
-8.4
-8.6
-8.8
-9
-9.2
-9.4
-9.6
-9.8
-10
-10.2
-10.4
-10.6
-10.8
-11
</DataArray>
</CellData>
</Piece>
</RectilinearGrid>
</VTKFile>
