<?xml version="1.0"?>
<VTKFile type="RectilinearGrid">
<RectilinearGrid WholeExtent="0 100 0 0 0 0">
<Piece Extent="0 100 0 0 0 0">
<Coordinates>
<DataArray type="Float32" format="ascii">
0
10
20
30
40
50
60
70
80
90
100
110
120
130
140
150
160
170
180
190
200
210
220
230
240
250
260
270
280
290
300
310
320
330
340
350
360
370
380
390
400
410
420
430
440
450
460
470
480
490
500
510
520
530
540
550
560
570
580
590
600
610
620
630
640
650
660
670
680
690
700
710
720
730
740
750
760
770
780
790
800
810
820
830
840
850
860
870
880
890
900
910
920
930
940
950
960
970
980
990
1000
</DataArray>
<DataArray type="Float32" format="ascii">
0
</DataArray>
<DataArray type="Float32" format="ascii">
0
</DataArray>
</Coordinates>
<CellData>
<DataArray Name="h" type="Float32" format="ascii">
5.13699
5.1363
5.1355
5.1336
5.13227
5.12973
5.12882
5.12699
5.12884
5.13136
5.14205
5.1597
5.19671
5.25826
5.36335
5.51653
5.71267
5.90522
6.05168
6.13627
6.17847
6.19396
6.1964
6.19014
6.18059
6.16784
6.15479
6.14072
6.12709
6.11347
6.10043
6.08778
6.07585
6.06454
6.054
6.04421
6.03517
6.02689
6.01938
6.01269
6.00685
6.00191
5.99786
5.99468
5.99237
5.9909
5.99026
5.99046
5.99146
5.99354
5.9965
5.99994
6.00352
6.00727
6.01124
6.01546
6.01992
6.02463
6.02962
6.03492
6.04057
6.0466
6.05307
6.06001
6.06741
6.07529
6.08364
6.09246
6.10173
6.11147
6.12171
6.13245
6.1437
6.15543
6.16761
6.18015
6.193
6.20604
6.21919
6.23234
6.24541
6.25834
6.27115
6.28389
6.29663
6.30945
6.32245
6.33569
6.34924
6.36302
6.37693
6.39043
6.40246
6.40948
6.4006
6.33486
6.10541
5.67494
5.27861
5.08658
</DataArray>
<DataArray Name="hu" type="Float32" format="ascii">
-0.00817688
-0.0465201
-0.0619678
-0.100729
-0.115328
-0.15866
-0.177865
-0.241461
-0.290548
-0.422408
-0.585939
-0.927159
-1.45308
-2.3972
-3.86554
-6.08073
-8.82176
-11.5695
-13.5801
-14.724
-15.1929
-15.2913
-15.1582
-14.9126
-14.5807
-14.2144
-13.8084
-13.3893
-12.9499
-12.5019
-12.0425
-11.5762
-11.1013
-10.6197
-10.1308
-9.63542
-9.13393
-8.62655
-8.11355
-7.59472
-7.06991
-6.53913
-6.00268
-5.46108
-4.91479
-4.36415
-3.80923
-3.25003
-2.68665
-2.11644
-1.54303
-0.969955
-0.394481
0.182931
0.761949
1.34235
1.92398
2.50667
3.09017
3.67414
4.25822
4.84201
5.42519
6.00753
6.58889
7.1692
7.74846
8.3266
8.90343
9.47853
10.0513
10.6211
11.1871
11.7483
12.3038
12.8525
13.3931
13.9241
14.4443
14.9523
15.4469
15.927
16.392
16.8414
17.2754
17.6948
18.1004
18.4937
18.8747
19.2441
19.599
19.9348
20.2332
20.4483
20.4171
19.5622
16.3785
10.4361
4.8402
1.31375
</DataArray>
<DataArray Name="B" type="Float32" format="ascii">
-20.6
-20.2
-19.8
-19.4
-19
-18.6
-18.2
-17.8
-17.4
-17
-16.6
-16.2
-15.8
-15.4
-15
-14.6
-14.2
-13.8
-13.4
-13
-12.6
-12.2
-11.8
-11.4
-11
-10.6
-10.2
-9.8
-9.4
-9
-8.6
-8.2
-7.8
-7.4
-7
-6.6
-6.2
-5.8
-5.4
-5
-4.6
-4.2
-3.8
-3.4
-3
-2.6
-2.2
-1.8
-1.4
-1
-1.2
-1.4
-1.6
-1.8
-2
-2.2
-2.4
-2.6
-2.8
-3
-3.2
-3.4
-3.6
-3.8
-4
-4.2
-4.4
-4.6
-4.8
-5
-5.2
-5.4
-5.6
-5.8
-6
-6.2
-6.4
-6.6
-6.8
-7
-7.2
-7.4
-7.6
-7.8
-8
-8.2
-8.4
-8.6
-8.8
-9
-9.2
-9.4
-9.6
-9.8
-10
-10.2
-10.4
-10.6
-10.8
-11
</DataArray>
</CellData>
</Piece>
</RectilinearGrid>
</VTKFile>
