<?xml version="1.0"?>
<VTKFile type="RectilinearGrid">
<RectilinearGrid WholeExtent="0 100 0 0 0 0">
<Piece Extent="0 100 0 0 0 0">
<Coordinates>
<DataArray type="Float32" format="ascii">
0
10
20
30
40
50
60
70
80
90
100
110
120
130
140
150
160
170
180
190
200
210
220
230
240
250
260
270
280
290
300
310
320
330
340
350
360
370
380
390
400
410
420
430
440
450
460
470
480
490
500
510
520
530
540
550
560
570
580
590
600
610
620
630
640
650
660
670
680
690
700
710
720
730
740
750
760
770
780
790
800
810
820
830
840
850
860
870
880
890
900
910
920
930
940
950
960
970
980
990
1000
</DataArray>
<DataArray type="Float32" format="ascii">
0
</DataArray>
<DataArray type="Float32" format="ascii">
0
</DataArray>
</Coordinates>
<CellData>
<DataArray Name="h" type="Float32" format="ascii">
6.28021
6.2952
6.26501
6.31186
6.24855
6.33193
6.23022
6.3552
6.21117
6.38007
6.19363
6.40409
6.18052
6.42336
6.17671
6.43455
6.18302
6.43711
6.19982
6.43169
6.22515
6.4214
6.25556
6.41021
6.28757
6.40173
6.31828
6.39823
6.34639
6.40029
6.37147
6.4074
6.394
6.41875
6.41523
6.43361
6.43622
6.45117
6.45722
6.46978
6.47575
6.47817
6.43944
6.25995
5.811
5.29305
5.00051
4.89473
4.86169
4.85145
4.84927
4.85085
4.8548
4.86067
4.86831
4.87759
4.88844
4.90074
4.91442
4.92938
4.94557
4.96306
4.98212
5.00352
5.02895
5.06174
5.10795
5.17743
5.28325
5.43614
5.631
5.8361
6.00802
6.124
6.19011
6.22355
6.23861
6.24396
6.24428
6.24204
6.23854
6.23449
6.23027
6.22608
6.22205
6.21822
6.21464
6.21131
6.20826
6.2055
6.20303
6.20086
6.19898
6.19738
6.19606
6.19499
6.19418
6.1936
6.19325
6.1931
</DataArray>
<DataArray Name="hu" type="Float32" format="ascii">
-0.390467
1.09664
0.203552
1.90704
0.70507
2.79966
1.13666
3.74497
1.53377
4.70463
1.93921
5.63621
2.40015
6.47859
2.98771
7.18518
3.70803
7.75271
4.56245
8.2006
5.51714
8.57467
6.51384
8.92825
7.49833
9.3081
8.43002
9.74134
9.29379
10.2343
10.0924
10.7818
10.8358
11.3656
11.5334
11.9638
12.191
12.5594
12.8122
13.1363
13.378
13.5676
13.2731
11.3703
6.73145
1.86536
-0.541158
-1.22351
-1.29761
-1.20108
-1.06005
-0.910086
-0.759904
-0.612639
-0.469553
-0.331307
-0.198325
-0.0708963
0.0507854
0.166538
0.275941
0.377756
0.468714
0.541046
0.57807
0.546677
0.385901
-0.00585932
-0.771129
-2.04304
-3.80377
-5.74087
-7.36987
-8.39959
-8.86668
-8.9543
-8.82412
-8.5764
-8.26582
-7.92118
-7.55775
-7.18381
-6.80398
-6.4208
-6.03583
-5.64981
-5.26323
-4.87618
-4.48869
-4.10072
-3.71221
-3.3231
-2.93342
-2.54326
-2.15257
-1.76149
-1.37014
-0.978607
-0.586965
-0.195571
</DataArray>
<DataArray Name="B" type="Float32" format="ascii">
-20.6
-20.2
-19.8
-19.4
-19
-18.6
-18.2
-17.8
-17.4
-17
-16.6
-16.2
-15.8
-15.4
-15
-14.6
-14.2
-13.8
-13.4
-13
-12.6
-12.2
-11.8
-11.4
-11
-10.6
-10.2
-9.8
-9.4
-9
-8.6
-8.2
-7.8
-7.4
-7
-6.6
-6.2
-5.8
-5.4
-5
-4.6
-4.2
-3.8
-3.4
-3
-2.6
-2.2
-1.8
-1.4
-1
-1.2
-1.4
-1.6
-1.8
-2
-2.2
-2.4
-2.6
-2.8
-3
-3.2
-3.4
-3.6
-3.8
-4
-4.2
-4.4
-4.6
-4.8
-5
-5.2
-5.4
-5.6
-5.8
-6
-6.2
-6.4
-6.6
-6.8
-7
-7.2
-7.4
-7.6
-7.8
-8
-8.2
-8.4
-8.6
-8.8
-9
-9.2
-9.4
-9.6
-9.8
-10
-10.2
-10.4
-10.6
-10.8
-11
</DataArray>
</CellData>
</Piece>
</RectilinearGrid>
</VTKFile>
