<?xml version="1.0"?>
<VTKFile type="RectilinearGrid">
<RectilinearGrid WholeExtent="0 100 0 0 0 0">
<Piece Extent="0 100 0 0 0 0">
<Coordinates>
<DataArray type="Float32" format="ascii">
0
10
20
30
40
50
60
70
80
90
100
110
120
130
140
150
160
170
180
190
200
210
220
230
240
250
260
270
280
290
300
310
320
330
340
350
360
370
380
390
400
410
420
430
440
450
460
470
480
490
500
510
520
530
540
550
560
570
580
590
600
610
620
630
640
650
660
670
680
690
700
710
720
730
740
750
760
770
780
790
800
810
820
830
840
850
860
870
880
890
900
910
920
930
940
950
960
970
980
990
1000
</DataArray>
<DataArray type="Float32" format="ascii">
0
</DataArray>
<DataArray type="Float32" format="ascii">
0
</DataArray>
</Coordinates>
<CellData>
<DataArray Name="h" type="Float32" format="ascii">
6.41185
6.41475
6.42078
6.43007
6.44261
6.45837
6.47729
6.49929
6.52425
6.55198
6.5822
6.61453
6.64846
6.6833
6.71824
6.75227
6.78434
6.81338
6.83849
6.8591
6.87511
6.88697
6.89556
6.90196
6.90713
6.91154
6.91428
6.91081
6.88592
6.79819
6.56654
6.1267
5.58373
5.15915
4.92938
4.831
4.79406
4.78119
4.77687
4.77537
4.77471
4.77428
4.77389
4.77348
4.77304
4.77257
4.77206
4.7715
4.77088
4.77019
4.76945
4.7687
4.76797
4.76726
4.76657
4.7659
4.76526
4.76464
4.76406
4.7635
4.76298
4.76247
4.76199
4.76156
4.76118
4.76092
4.76085
4.76111
4.7619
4.76357
4.7668
4.77286
4.7845
4.8075
4.85382
4.94633
5.12159
5.41783
5.83198
6.2807
6.65167
6.89981
7.05111
7.14729
7.21679
7.27384
7.32421
7.36971
7.41052
7.44642
7.47729
7.50319
7.52442
7.54143
7.55472
7.56485
7.57231
7.57755
7.58093
7.58264
</DataArray>
<DataArray Name="hu" type="Float32" format="ascii">
0.883385
2.64989
4.4123
6.16486
7.90317
9.62255
11.3178
12.9833
14.6126
16.1982
17.7316
19.2032
20.602
21.9159
23.1316
24.2345
25.21
26.0447
26.7291
27.26
27.6436
27.8959
28.0406
28.1042
28.1101
28.0716
27.9812
27.777
27.2451
25.8038
22.3639
16.2655
9.23951
4.09338
1.44623
0.3447
-0.0689618
-0.22129
-0.282728
-0.314576
-0.337378
-0.357561
-0.376963
-0.396053
-0.414935
-0.433665
-0.4523
-0.47089
-0.489466
-0.508105
-0.526613
-0.544846
-0.562926
-0.580846
-0.598622
-0.616288
-0.633878
-0.651408
-0.668866
-0.686209
-0.703377
-0.720274
-0.736789
-0.752773
-0.76799
-0.782061
-0.794379
-0.804068
-0.810039
-0.811446
-0.809062
-0.808837
-0.830278
-0.924394
-1.20874
-1.92424
-3.48583
-6.38854
-10.7324
-15.6313
-19.6464
-22.0492
-23.0735
-23.2413
-22.9345
-22.353
-21.5846
-20.662
-19.5961
-18.3913
-17.0527
-15.589
-14.0119
-12.3352
-10.5738
-8.74236
-6.8551
-4.92538
-2.96592
-0.990142
</DataArray>
<DataArray Name="B" type="Float32" format="ascii">
-20.6
-20.2
-19.8
-19.4
-19
-18.6
-18.2
-17.8
-17.4
-17
-16.6
-16.2
-15.8
-15.4
-15
-14.6
-14.2
-13.8
-13.4
-13
-12.6
-12.2
-11.8
-11.4
-11
-10.6
-10.2
-9.8
-9.4
-9
-8.6
-8.2
-7.8
-7.4
-7
-6.6
-6.2
-5.8
-5.4
-5
-4.6
-4.2
-3.8
-3.4
-3
-2.6
-2.2
-1.8
-1.4
-1
-1.2
-1.4
-1.6
-1.8
-2
-2.2
-2.4
-2.6
-2.8
-3
-3.2
-3.4
-3.6
-3.8
-4
-4.2
-4.4
-4.6
-4.8
-5
-5.2
-5.4
-5.6
-5.8
-6
-6.2
-6.4
-6.6
-6.8
-7
-7.2
-7.4
-7.6
-7.8
-8
-8.2
-8.4
-8.6
-8.8
-9
-9.2
-9.4
-9.6
-9.8
-10
-10.2
-10.4
-10.6
-10.8
-11
</DataArray>
</CellData>
</Piece>
</RectilinearGrid>
</VTKFile>
