<?xml version="1.0"?>
<VTKFile type="RectilinearGrid">
<RectilinearGrid WholeExtent="0 100 0 0 0 0">
<Piece Extent="0 100 0 0 0 0">
<Coordinates>
<DataArray type="Float32" format="ascii">
0
10
20
30
40
50
60
70
80
90
100
110
120
130
140
150
160
170
180
190
200
210
220
230
240
250
260
270
280
290
300
310
320
330
340
350
360
370
380
390
400
410
420
430
440
450
460
470
480
490
500
510
520
530
540
550
560
570
580
590
600
610
620
630
640
650
660
670
680
690
700
710
720
730
740
750
760
770
780
790
800
810
820
830
840
850
860
870
880
890
900
910
920
930
940
950
960
970
980
990
1000
</DataArray>
<DataArray type="Float32" format="ascii">
0
</DataArray>
<DataArray type="Float32" format="ascii">
0
</DataArray>
</Coordinates>
<CellData>
<DataArray Name="h" type="Float32" format="ascii">
5.02967
5.05942
5.13692
5.30016
5.59575
6.01919
6.44431
6.72552
6.85784
6.90991
6.92845
6.93371
6.93367
6.93147
6.92837
6.9248
6.92085
6.91621
6.91009
6.90101
6.88676
6.86464
6.83204
6.78706
6.7289
6.65786
6.5751
6.48224
6.38109
6.27345
6.16096
6.04512
5.92724
5.80857
5.69027
5.5735
5.45941
5.34922
5.24422
5.14579
5.05543
4.97463
4.90478
4.84694
4.80159
4.76839
4.74608
4.73266
4.72575
4.72331
4.72441
4.72952
4.74079
4.76146
4.79488
4.84357
4.90866
4.98984
5.08568
5.19407
5.31268
5.43917
5.57141
5.70747
5.84558
5.98408
6.12135
6.25577
6.38561
6.50903
6.62404
6.72852
6.82034
6.89768
6.95939
7.00543
7.03712
7.05705
7.06844
7.07438
7.07713
7.07771
7.07553
7.06726
7.044
6.98515
6.8504
6.58621
6.18162
5.73559
5.38564
5.17726
5.07424
5.02892
5.01053
5.00356
5.00111
5.00031
5.00008
5.00002
</DataArray>
<DataArray Name="hu" type="Float32" format="ascii">
-0.226187
-0.860732
-2.12498
-4.68517
-9.32303
-16.0475
-22.8973
-27.4494
-29.5398
-30.2857
-30.4688
-30.4293
-30.3011
-30.1367
-29.9567
-29.7686
-29.5734
-29.3666
-29.1361
-28.8596
-28.5043
-28.0314
-27.4047
-26.6006
-25.6125
-24.4514
-23.141
-21.7116
-20.1955
-18.6234
-17.023
-15.4186
-13.8311
-12.2785
-10.7764
-9.33865
-7.978
-6.70663
-5.53631
-4.47822
-3.54265
-2.73815
-2.07042
-1.54081
-1.14468
-0.870306
-0.699036
-0.607253
-0.569611
-0.561503
-0.559306
-0.538443
-0.471582
-0.327963
-0.0762499
0.310131
0.848614
1.54605
2.39998
3.40126
4.53674
5.79123
7.14866
8.59261
10.1063
11.6724
13.2722
14.8848
16.4865
18.0502
19.5448
20.9368
22.1915
23.2776
24.173
24.8707
25.3833
25.7412
25.9853
26.1554
26.2813
26.3763
26.4318
26.4009
26.1581
25.4139
23.6114
20.0503
14.7007
8.99183
4.65427
2.12829
0.891981
0.348807
0.127644
0.0434731
0.0136458
0.00390016
0.000998412
0.000189494
</DataArray>
<DataArray Name="B" type="Float32" format="ascii">
-20.6
-20.2
-19.8
-19.4
-19
-18.6
-18.2
-17.8
-17.4
-17
-16.6
-16.2
-15.8
-15.4
-15
-14.6
-14.2
-13.8
-13.4
-13
-12.6
-12.2
-11.8
-11.4
-11
-10.6
-10.2
-9.8
-9.4
-9
-8.6
-8.2
-7.8
-7.4
-7
-6.6
-6.2
-5.8
-5.4
-5
-4.6
-4.2
-3.8
-3.4
-3
-2.6
-2.2
-1.8
-1.4
-1
-1.2
-1.4
-1.6
-1.8
-2
-2.2
-2.4
-2.6
-2.8
-3
-3.2
-3.4
-3.6
-3.8
-4
-4.2
-4.4
-4.6
-4.8
-5
-5.2
-5.4
-5.6
-5.8
-6
-6.2
-6.4
-6.6
-6.8
-7
-7.2
-7.4
-7.6
-7.8
-8
-8.2
-8.4
-8.6
-8.8
-9
-9.2
-9.4
-9.6
-9.8
-10
-10.2
-10.4
-10.6
-10.8
-11
</DataArray>
</CellData>
</Piece>
</RectilinearGrid>
</VTKFile>
