<?xml version="1.0"?>
<VTKFile type="RectilinearGrid">
<RectilinearGrid WholeExtent="0 100 0 0 0 0">
<Piece Extent="0 100 0 0 0 0">
<Coordinates>
<DataArray type="Float32" format="ascii">
0
10
20
30
40
50
60
70
80
90
100
110
120
130
140
150
160
170
180
190
200
210
220
230
240
250
260
270
280
290
300
310
320
330
340
350
360
370
380
390
400
410
420
430
440
450
460
470
480
490
500
510
520
530
540
550
560
570
580
590
600
610
620
630
640
650
660
670
680
690
700
710
720
730
740
750
760
770
780
790
800
810
820
830
840
850
860
870
880
890
900
910
920
930
940
950
960
970
980
990
1000
</DataArray>
<DataArray type="Float32" format="ascii">
0
</DataArray>
<DataArray type="Float32" format="ascii">
0
</DataArray>
</Coordinates>
<CellData>
<DataArray Name="h" type="Float32" format="ascii">
6.84836
6.85008
6.85373
6.85938
6.86694
6.87625
6.88709
6.89913
6.91194
6.92498
6.93763
6.94913
6.95868
6.96549
6.96889
6.96848
6.96427
6.95683
6.94716
6.93655
6.92628
6.91727
6.90974
6.90255
6.89094
6.85974
6.76806
6.53641
6.10352
5.57299
5.15716
4.92923
4.82967
4.79141
4.77778
4.77315
4.7716
4.771
4.77067
4.77039
4.7701
4.76979
4.76946
4.76909
4.7687
4.76825
4.76775
4.7672
4.76659
4.76592
4.7652
4.76449
4.7638
4.76313
4.76247
4.76183
4.76121
4.76062
4.76005
4.75953
4.75905
4.75863
4.75828
4.75804
4.75798
4.75822
4.75893
4.76036
4.76286
4.76683
4.77278
4.78129
4.79306
4.80906
4.83086
4.86156
4.90768
4.98251
5.11083
5.32981
5.67204
6.12043
6.58279
6.95665
7.21101
7.37539
7.48876
7.57677
7.65213
7.71987
7.78141
7.83668
7.88529
7.92695
7.96165
7.98964
8.0113
8.02707
8.03739
8.04251
</DataArray>
<DataArray Name="hu" type="Float32" format="ascii">
0.996623
2.98878
4.97341
6.94219
8.88794
10.8027
12.6774
14.5019
16.2645
17.9518
19.5485
21.0378
22.4017
23.6227
24.6864
25.5835
26.3133
26.8853
27.3175
27.6338
27.8577
28.0087
28.0963
28.1109
27.9903
27.5211
26.1208
22.6975
16.5985
9.5504
4.33939
1.61238
0.453121
0.0082852
-0.158351
-0.225783
-0.260137
-0.284206
-0.305283
-0.325483
-0.345334
-0.364944
-0.384343
-0.403561
-0.422651
-0.441657
-0.460609
-0.479509
-0.498326
-0.517112
-0.535686
-0.553963
-0.572104
-0.590099
-0.60793
-0.625584
-0.643058
-0.660367
-0.677532
-0.694549
-0.711368
-0.727849
-0.743719
-0.75851
-0.771461
-0.781411
-0.786639
-0.78471
-0.772383
-0.745564
-0.699453
-0.629007
-0.529931
-0.400874
-0.248221
-0.0963307
-0.00854483
-0.126158
-0.725697
-2.25065
-5.15578
-9.37921
-13.8911
-17.3457
-19.2134
-19.8064
-19.6278
-19.028
-18.1875
-17.1841
-16.0454
-14.7791
-13.3877
-11.8756
-10.2512
-8.52728
-6.71963
-4.84611
-2.92547
-0.977871
</DataArray>
<DataArray Name="B" type="Float32" format="ascii">
-20.6
-20.2
-19.8
-19.4
-19
-18.6
-18.2
-17.8
-17.4
-17
-16.6
-16.2
-15.8
-15.4
-15
-14.6
-14.2
-13.8
-13.4
-13
-12.6
-12.2
-11.8
-11.4
-11
-10.6
-10.2
-9.8
-9.4
-9
-8.6
-8.2
-7.8
-7.4
-7
-6.6
-6.2
-5.8
-5.4
-5
-4.6
-4.2
-3.8
-3.4
-3
-2.6
-2.2
-1.8
-1.4
-1
-1.2
-1.4
-1.6
-1.8
-2
-2.2
-2.4
-2.6
-2.8
-3
-3.2
-3.4
-3.6
-3.8
-4
-4.2
-4.4
-4.6
-4.8
-5
-5.2
-5.4
-5.6
-5.8
-6
-6.2
-6.4
-6.6
-6.8
-7
-7.2
-7.4
-7.6
-7.8
-8
-8.2
-8.4
-8.6
-8.8
-9
-9.2
-9.4
-9.6
-9.8
-10
-10.2
-10.4
-10.6
-10.8
-11
</DataArray>
</CellData>
</Piece>
</RectilinearGrid>
</VTKFile>
