<?xml version="1.0"?>
<VTKFile type="RectilinearGrid">
<RectilinearGrid WholeExtent="0 100 0 0 0 0">
<Piece Extent="0 100 0 0 0 0">
<Coordinates>
<DataArray type="Float32" format="ascii">
0
10
20
30
40
50
60
70
80
90
100
110
120
130
140
150
160
170
180
190
200
210
220
230
240
250
260
270
280
290
300
310
320
330
340
350
360
370
380
390
400
410
420
430
440
450
460
470
480
490
500
510
520
530
540
550
560
570
580
590
600
610
620
630
640
650
660
670
680
690
700
710
720
730
740
750
760
770
780
790
800
810
820
830
840
850
860
870
880
890
900
910
920
930
940
950
960
970
980
990
1000
</DataArray>
<DataArray type="Float32" format="ascii">
0
</DataArray>
<DataArray type="Float32" format="ascii">
0
</DataArray>
</Coordinates>
<CellData>
<DataArray Name="h" type="Float32" format="ascii">
8.15208
8.12432
8.02292
7.73089
7.25265
6.83769
6.59457
6.46624
6.39352
6.34599
6.30992
6.27904
6.25047
6.22286
6.1956
6.16839
6.14112
6.11374
6.08625
6.05867
6.03102
6.00332
5.97563
5.94798
5.92043
5.89303
5.86585
5.83895
5.81241
5.7863
5.7607
5.7357
5.71137
5.6878
5.66508
5.64331
5.62256
5.6029
5.58441
5.56713
5.55113
5.53645
5.52313
5.51118
5.50062
5.49144
5.4836
5.47706
5.47177
5.46814
5.46646
5.4665
5.46789
5.47073
5.4751
5.48109
5.48878
5.49824
5.50954
5.52274
5.53788
5.55497
5.57402
5.59499
5.6178
5.64239
5.66862
5.69637
5.7255
5.75587
5.78733
5.81972
5.85291
5.88675
5.92112
5.9559
5.99099
6.02628
6.06171
6.09719
6.13264
6.16799
6.20313
6.23792
6.27211
6.30527
6.33656
6.36441
6.38579
6.39493
6.38153
6.32916
6.21755
6.03479
5.79757
5.55483
5.35709
5.22485
5.15061
5.11864
</DataArray>
<DataArray Name="hu" type="Float32" format="ascii">
0.152909
0.242321
-0.774775
-4.81792
-11.6638
-17.2729
-20.1116
-21.1775
-21.4031
-21.2519
-20.9302
-20.5307
-20.0958
-19.6453
-19.1882
-18.7288
-18.2688
-17.8091
-17.3497
-16.8907
-16.4317
-15.9726
-15.5128
-15.052
-14.5895
-14.1248
-13.6574
-13.1864
-12.7113
-12.2315
-11.7462
-11.2549
-10.7569
-10.2516
-9.73848
-9.21687
-8.68638
-8.14669
-7.59764
-7.03919
-6.47141
-5.89451
-5.30883
-4.71487
-4.11327
-3.50488
-2.89071
-2.27188
-1.64959
-1.02129
-0.391865
0.233238
0.856115
1.47521
2.089
2.69604
3.29496
3.88453
4.46369
5.03153
5.58736
6.13069
6.66128
7.17911
7.68439
8.17754
8.65918
9.13008
9.5911
10.0432
10.4875
10.9251
11.357
11.7843
12.2081
12.6292
13.0485
13.4667
13.8843
14.3016
14.719
15.1363
15.5529
15.9676
16.3776
16.7776
17.1567
17.4938
17.7477
17.8396
17.6283
16.8896
15.3528
12.8744
9.70574
6.50627
3.90882
2.12915
1.01734
0.297527
</DataArray>
<DataArray Name="B" type="Float32" format="ascii">
-20.6
-20.2
-19.8
-19.4
-19
-18.6
-18.2
-17.8
-17.4
-17
-16.6
-16.2
-15.8
-15.4
-15
-14.6
-14.2
-13.8
-13.4
-13
-12.6
-12.2
-11.8
-11.4
-11
-10.6
-10.2
-9.8
-9.4
-9
-8.6
-8.2
-7.8
-7.4
-7
-6.6
-6.2
-5.8
-5.4
-5
-4.6
-4.2
-3.8
-3.4
-3
-2.6
-2.2
-1.8
-1.4
-1
-1.2
-1.4
-1.6
-1.8
-2
-2.2
-2.4
-2.6
-2.8
-3
-3.2
-3.4
-3.6
-3.8
-4
-4.2
-4.4
-4.6
-4.8
-5
-5.2
-5.4
-5.6
-5.8
-6
-6.2
-6.4
-6.6
-6.8
-7
-7.2
-7.4
-7.6
-7.8
-8
-8.2
-8.4
-8.6
-8.8
-9
-9.2
-9.4
-9.6
-9.8
-10
-10.2
-10.4
-10.6
-10.8
-11
</DataArray>
</CellData>
</Piece>
</RectilinearGrid>
</VTKFile>
