<?xml version="1.0"?>
<VTKFile type="RectilinearGrid">
<RectilinearGrid WholeExtent="0 100 0 0 0 0">
<Piece Extent="0 100 0 0 0 0">
<Coordinates>
<DataArray type="Float32" format="ascii">
0
10
20
30
40
50
60
70
80
90
100
110
120
130
140
150
160
170
180
190
200
210
220
230
240
250
260
270
280
290
300
310
320
330
340
350
360
370
380
390
400
410
420
430
440
450
460
470
480
490
500
510
520
530
540
550
560
570
580
590
600
610
620
630
640
650
660
670
680
690
700
710
720
730
740
750
760
770
780
790
800
810
820
830
840
850
860
870
880
890
900
910
920
930
940
950
960
970
980
990
1000
</DataArray>
<DataArray type="Float32" format="ascii">
0
</DataArray>
<DataArray type="Float32" format="ascii">
0
</DataArray>
</Coordinates>
<CellData>
<DataArray Name="h" type="Float32" format="ascii">
6.74197
6.74206
6.74228
6.74265
6.74317
6.74382
6.74461
6.74555
6.74661
6.74781
6.74914
6.75059
6.75217
6.75388
6.7557
6.75764
6.75969
6.76186
6.76413
6.76651
6.76899
6.77157
6.77424
6.77701
6.77986
6.7828
6.78582
6.78893
6.7921
6.79535
6.79867
6.80206
6.8055
6.80901
6.81257
6.81619
6.81986
6.82358
6.82734
6.83115
6.835
6.8389
6.84284
6.84682
6.85085
6.85492
6.85903
6.8632
6.86741
6.87169
6.87604
6.88046
6.88497
6.88957
6.89428
6.8991
6.90407
6.90918
6.91447
6.91995
6.92565
6.93159
6.93782
6.94435
6.95123
6.9585
6.96619
6.97433
6.98297
6.99214
7.00187
7.0122
7.02314
7.03472
7.04693
7.05979
7.07329
7.08739
7.10206
7.11725
7.13289
7.14889
7.16516
7.18161
7.19813
7.21463
7.231
7.24713
7.26289
7.2781
7.29255
7.3059
7.31759
7.32667
7.33162
7.33206
7.34382
7.47302
8.05194
9.06376
</DataArray>
<DataArray Name="hu" type="Float32" format="ascii">
0.337955
1.0141
1.69046
2.36678
3.04305
3.71925
4.39537
5.07137
5.74725
6.42299
7.09858
7.77399
8.44918
9.12413
9.79884
10.4733
11.1474
11.8212
12.4947
13.1677
13.8403
14.5125
15.1842
15.8553
16.5259
17.1958
17.8651
18.5336
19.2015
19.8685
20.5346
21.1999
21.8641
22.5273
23.1894
23.8504
24.5101
25.1684
25.8254
26.4808
27.1346
27.7868
28.4372
29.0857
29.7322
30.3766
31.0187
31.6584
32.2955
32.93
33.5615
34.19
34.8153
35.4372
36.0554
36.6697
37.2801
37.8861
38.4876
39.0843
39.676
40.2623
40.843
41.4178
41.9862
42.5481
43.1032
43.651
44.1915
44.7242
45.2491
45.7658
46.2743
46.7745
47.2662
47.7496
48.2247
48.6917
49.1508
49.6024
50.0467
50.4843
50.9157
51.3412
51.7614
52.1765
52.5869
52.9927
53.3938
53.7896
54.1785
54.5565
54.9142
55.2295
55.449
55.4365
54.8019
52.2346
43.0298
18.0677
</DataArray>
<DataArray Name="B" type="Float32" format="ascii">
-10.9
-10.8
-10.7
-10.6
-10.5
-10.4
-10.3
-10.2
-10.1
-10
-9.9
-9.8
-9.7
-9.6
-9.5
-9.4
-9.3
-9.2
-9.1
-9
-8.9
-8.8
-8.7
-8.6
-8.5
-8.4
-8.3
-8.2
-8.1
-8
-7.9
-7.8
-7.7
-7.6
-7.5
-7.4
-7.3
-7.2
-7.1
-7
-6.9
-6.8
-6.7
-6.6
-6.5
-6.4
-6.3
-6.2
-6.1
-6
-5.9
-5.8
-5.7
-5.6
-5.5
-5.4
-5.3
-5.2
-5.1
-5
-4.9
-4.8
-4.7
-4.6
-4.5
-4.4
-4.3
-4.2
-4.1
-4
-3.9
-3.8
-3.7
-3.6
-3.5
-3.4
-3.3
-3.2
-3.1
-3
-2.9
-2.8
-2.7
-2.6
-2.5
-2.4
-2.3
-2.2
-2.1
-2
-1.9
-1.8
-1.7
-1.6
-1.5
-1.4
-1.3
-1.2
-1.1
-1
</DataArray>
</CellData>
</Piece>
</RectilinearGrid>
</VTKFile>
