<?xml version="1.0"?>
<VTKFile type="RectilinearGrid">
<RectilinearGrid WholeExtent="0 100 0 0 0 0">
<Piece Extent="0 100 0 0 0 0">
<Coordinates>
<DataArray type="Float32" format="ascii">
0
10
20
30
40
50
60
70
80
90
100
110
120
130
140
150
160
170
180
190
200
210
220
230
240
250
260
270
280
290
300
310
320
330
340
350
360
370
380
390
400
410
420
430
440
450
460
470
480
490
500
510
520
530
540
550
560
570
580
590
600
610
620
630
640
650
660
670
680
690
700
710
720
730
740
750
760
770
780
790
800
810
820
830
840
850
860
870
880
890
900
910
920
930
940
950
960
970
980
990
1000
</DataArray>
<DataArray type="Float32" format="ascii">
0
</DataArray>
<DataArray type="Float32" format="ascii">
0
</DataArray>
</Coordinates>
<CellData>
<DataArray Name="h" type="Float32" format="ascii">
3.57365
3.57358
3.57345
3.57326
3.57303
3.57278
3.57256
3.57243
3.5725
3.57289
3.57381
3.57552
3.57835
3.58272
3.58911
3.59809
3.61026
3.62627
3.64671
3.67218
3.70316
3.74004
3.78308
3.83241
3.88801
3.94976
4.01742
4.09067
4.16913
4.25239
4.34
4.43151
4.52649
4.62451
4.72517
4.8281
4.93294
5.03938
5.14712
5.25592
5.36552
5.47573
5.58637
5.69727
5.80829
5.91932
6.03024
6.14096
6.25137
6.3614
6.47093
6.57985
6.68803
6.7953
6.90147
7.00632
7.1096
7.21103
7.3103
7.40711
7.50115
7.59212
7.67973
7.76374
7.84391
7.92008
7.99207
8.05979
8.12313
8.18204
8.23648
8.28642
8.33186
8.37283
8.40937
8.44158
8.46955
8.49343
8.5134
8.52969
8.54259
8.55251
8.56037
8.56866
8.58533
8.63672
8.80555
9.30713
10.4617
12.2124
13.8649
14.9112
15.4202
15.6339
15.7169
15.7478
15.7591
15.7634
15.765
15.7655
</DataArray>
<DataArray Name="hu" type="Float32" format="ascii">
0.00402162
0.0120759
0.0201737
0.0283795
0.036839
0.0458319
0.055823
0.0675398
0.0820808
0.101038
0.126609
0.161715
0.210114
0.276418
0.366066
0.485237
0.640641
0.839223
1.08782
1.3928
1.75971
2.19303
2.69594
3.27029
3.91662
4.63424
5.42144
6.27565
7.19367
8.1719
9.20646
10.2933
11.4286
12.6083
13.8286
15.0859
16.3768
17.698
19.0464
20.419
21.813
23.2255
24.654
26.0958
27.5483
29.009
30.4754
31.9449
33.4153
34.884
36.3487
37.8074
39.2578
40.698
42.1263
43.5409
44.9401
46.3224
47.6862
49.0296
50.3506
51.647
52.9162
54.1552
55.3606
56.5288
57.6561
58.7383
59.7715
60.7517
61.6755
62.5396
63.3415
64.0791
64.7513
65.3576
65.8986
66.3757
66.7912
67.148
67.4497
67.6998
67.8998
68.0433
68.0953
67.9239
67.0695
64.0665
55.6497
39.9708
22.5518
10.2998
4.01694
1.34783
0.340394
0.00148313
-0.0879916
-0.0890053
-0.0597991
-0.0207087
</DataArray>
<DataArray Name="B" type="Float32" format="ascii">
-10.9
-10.8
-10.7
-10.6
-10.5
-10.4
-10.3
-10.2
-10.1
-10
-9.9
-9.8
-9.7
-9.6
-9.5
-9.4
-9.3
-9.2
-9.1
-9
-8.9
-8.8
-8.7
-8.6
-8.5
-8.4
-8.3
-8.2
-8.1
-8
-7.9
-7.8
-7.7
-7.6
-7.5
-7.4
-7.3
-7.2
-7.1
-7
-6.9
-6.8
-6.7
-6.6
-6.5
-6.4
-6.3
-6.2
-6.1
-6
-5.9
-5.8
-5.7
-5.6
-5.5
-5.4
-5.3
-5.2
-5.1
-5
-4.9
-4.8
-4.7
-4.6
-4.5
-4.4
-4.3
-4.2
-4.1
-4
-3.9
-3.8
-3.7
-3.6
-3.5
-3.4
-3.3
-3.2
-3.1
-3
-2.9
-2.8
-2.7
-2.6
-2.5
-2.4
-2.3
-2.2
-2.1
-2
-1.9
-1.8
-1.7
-1.6
-1.5
-1.4
-1.3
-1.2
-1.1
-1
</DataArray>
</CellData>
</Piece>
</RectilinearGrid>
</VTKFile>
