<?xml version="1.0"?>
<VTKFile type="RectilinearGrid">
<RectilinearGrid WholeExtent="0 100 0 0 0 0">
<Piece Extent="0 100 0 0 0 0">
<Coordinates>
<DataArray type="Float32" format="ascii">
0
10
20
30
40
50
60
70
80
90
100
110
120
130
140
150
160
170
180
190
200
210
220
230
240
250
260
270
280
290
300
310
320
330
340
350
360
370
380
390
400
410
420
430
440
450
460
470
480
490
500
510
520
530
540
550
560
570
580
590
600
610
620
630
640
650
660
670
680
690
700
710
720
730
740
750
760
770
780
790
800
810
820
830
840
850
860
870
880
890
900
910
920
930
940
950
960
970
980
990
1000
</DataArray>
<DataArray type="Float32" format="ascii">
0
</DataArray>
<DataArray type="Float32" format="ascii">
0
</DataArray>
</Coordinates>
<CellData>
<DataArray Name="h" type="Float32" format="ascii">
14
14
14
14
14
14
14
14
14
14
14
14
14
14
14
14
14
14
14
14
14
14
13.9999
13.9991
13.9946
13.9748
13.905
13.7107
13.28
12.5066
11.3615
9.96905
8.69746
8.0017
7.62656
6.66667
5.26802
4.16634
3.67703
3.53588
3.50579
3.50075
3.50008
3.50001
3.5
3.5
3.5
3.5
3.5
3.5
3.5
3.5
3.5
3.5
3.5
3.5
3.5
3.5
3.5
3.5
3.5
3.5
3.5
3.5
3.5
3.5
3.5
3.5
3.5
3.5
3.5
3.5
3.5
3.5
3.5
3.5
3.5
3.5
3.5
3.5
3.5
3.5
3.5
3.5
3.5
3.5
3.5
3.5
3.5
3.5
3.5
3.5
3.5
3.50003
3.5002
3.50116
3.5052
3.51787
3.54549
3.58244
</DataArray>
<DataArray Name="hu" type="Float32" format="ascii">
3.84611e-06
-2.665e-06
-4.2979e-06
5.04271e-06
1.65139e-07
2.25539e-06
3.23429e-06
1.01649e-05
1.46843e-05
6.76927e-06
4.69978e-06
-2.01877e-05
-1.7743e-05
1.49415e-06
-3.12335e-06
-8.49007e-07
-1.06848e-05
-9.79059e-06
1.07865e-05
1.71688e-05
1.86776e-05
0.000189529
0.00180219
0.013452
0.0794132
0.372694
1.39757
4.20623
10.2472
20.5176
34.4617
49.5361
61.766
65.9057
58.8693
42.6315
22.1194
8.10441
2.56359
1.06924
0.759049
0.707617
0.700784
0.700065
0.700008
0.700002
0.699999
0.699998
0.7
0.700002
0.7
0.699997
0.699997
0.700001
0.700005
0.700002
0.699998
0.699998
0.7
0.700004
0.700001
0.699997
0.699995
0.699999
0.700003
0.700001
0.7
0.7
0.700001
0.700001
0.700001
0.699999
0.699998
0.699999
0.7
0.700001
0.700001
0.7
0.7
0.7
0.699999
0.7
0.700001
0.700001
0.7
0.699999
0.699999
0.7
0.700001
0.7
0.7
0.699998
0.699978
0.699806
0.698616
0.692155
0.665111
0.580946
0.39823
0.152125
</DataArray>
<DataArray Name="B" type="Float32" format="ascii">
-10.9
-10.8
-10.7
-10.6
-10.5
-10.4
-10.3
-10.2
-10.1
-10
-9.9
-9.8
-9.7
-9.6
-9.5
-9.4
-9.3
-9.2
-9.1
-9
-8.9
-8.8
-8.7
-8.6
-8.5
-8.4
-8.3
-8.2
-8.1
-8
-7.9
-7.8
-7.7
-7.6
-7.5
-7.4
-7.3
-7.2
-7.1
-7
-6.9
-6.8
-6.7
-6.6
-6.5
-6.4
-6.3
-6.2
-6.1
-6
-5.9
-5.8
-5.7
-5.6
-5.5
-5.4
-5.3
-5.2
-5.1
-5
-4.9
-4.8
-4.7
-4.6
-4.5
-4.4
-4.3
-4.2
-4.1
-4
-3.9
-3.8
-3.7
-3.6
-3.5
-3.4
-3.3
-3.2
-3.1
-3
-2.9
-2.8
-2.7
-2.6
-2.5
-2.4
-2.3
-2.2
-2.1
-2
-1.9
-1.8
-1.7
-1.6
-1.5
-1.4
-1.3
-1.2
-1.1
-1
</DataArray>
</CellData>
</Piece>
</RectilinearGrid>
</VTKFile>
