<?xml version="1.0"?>
<VTKFile type="RectilinearGrid">
<RectilinearGrid WholeExtent="0 100 0 0 0 0">
<Piece Extent="0 100 0 0 0 0">
<Coordinates>
<DataArray type="Float32" format="ascii">
0
10
20
30
40
50
60
70
80
90
100
110
120
130
140
150
160
170
180
190
200
210
220
230
240
250
260
270
280
290
300
310
320
330
340
350
360
370
380
390
400
410
420
430
440
450
460
470
480
490
500
510
520
530
540
550
560
570
580
590
600
610
620
630
640
650
660
670
680
690
700
710
720
730
740
750
760
770
780
790
800
810
820
830
840
850
860
870
880
890
900
910
920
930
940
950
960
970
980
990
1000
</DataArray>
<DataArray type="Float32" format="ascii">
0
</DataArray>
<DataArray type="Float32" format="ascii">
0
</DataArray>
</Coordinates>
<CellData>
<DataArray Name="h" type="Float32" format="ascii">
5.76196
5.76208
5.76236
5.7628
5.76341
5.76419
5.76513
5.76623
5.76751
5.76894
5.77054
5.7723
5.77423
5.77631
5.77856
5.78096
5.78353
5.78625
5.78913
5.79217
5.79537
5.79873
5.80225
5.80593
5.80976
5.81376
5.81791
5.82223
5.82671
5.83136
5.83618
5.84116
5.84632
5.85166
5.85718
5.86289
5.86878
5.87488
5.88118
5.88768
5.89441
5.90137
5.90856
5.916
5.9237
5.93168
5.93994
5.9485
5.95738
5.96659
5.97616
5.9861
5.99643
6.00717
6.01835
6.02998
6.04208
6.05467
6.06777
6.08139
6.09555
6.11025
6.12551
6.14132
6.15768
6.17459
6.19203
6.20998
6.22841
6.24729
6.26658
6.28624
6.30621
6.32645
6.34691
6.36754
6.38836
6.40954
6.43184
6.45794
6.49694
6.57864
6.79239
7.34621
8.46811
9.96078
11.221
11.9633
12.3164
12.4696
12.5353
12.5649
12.58
12.5889
12.595
12.5996
12.6031
12.6056
12.6072
12.608
</DataArray>
<DataArray Name="hu" type="Float32" format="ascii">
0.281058
0.843359
1.40585
1.96831
2.5307
3.09302
3.65524
4.21734
4.77931
5.34113
5.90277
6.46422
7.02543
7.58639
8.14706
8.70741
9.26742
9.82705
10.3863
10.945
11.5033
12.0611
12.6182
13.1748
13.7307
14.2859
14.8402
15.3938
15.9464
16.4981
17.0487
17.5983
18.1466
18.6936
19.2393
19.7835
20.3262
20.8671
21.4063
21.9437
22.479
23.0122
23.5431
24.0716
24.5976
25.1209
25.6414
26.1588
26.6731
27.184
27.6914
28.1952
28.695
29.1908
29.6824
30.1697
30.6524
31.1305
31.6038
32.0723
32.5358
32.9944
33.448
33.8966
34.3402
34.779
35.2132
35.6427
36.068
36.4892
36.9066
37.3205
37.7312
38.1391
38.5444
38.9474
39.348
39.745
40.1341
40.4998
40.7904
40.8343
40.0796
36.9588
28.7765
15.5461
2.87684
-4.86862
-8.18058
-9.04465
-8.81121
-8.12722
-7.26495
-6.33301
-5.37365
-4.40308
-3.42759
-2.4497
-1.47058
-0.490407
</DataArray>
<DataArray Name="B" type="Float32" format="ascii">
-10.9
-10.8
-10.7
-10.6
-10.5
-10.4
-10.3
-10.2
-10.1
-10
-9.9
-9.8
-9.7
-9.6
-9.5
-9.4
-9.3
-9.2
-9.1
-9
-8.9
-8.8
-8.7
-8.6
-8.5
-8.4
-8.3
-8.2
-8.1
-8
-7.9
-7.8
-7.7
-7.6
-7.5
-7.4
-7.3
-7.2
-7.1
-7
-6.9
-6.8
-6.7
-6.6
-6.5
-6.4
-6.3
-6.2
-6.1
-6
-5.9
-5.8
-5.7
-5.6
-5.5
-5.4
-5.3
-5.2
-5.1
-5
-4.9
-4.8
-4.7
-4.6
-4.5
-4.4
-4.3
-4.2
-4.1
-4
-3.9
-3.8
-3.7
-3.6
-3.5
-3.4
-3.3
-3.2
-3.1
-3
-2.9
-2.8
-2.7
-2.6
-2.5
-2.4
-2.3
-2.2
-2.1
-2
-1.9
-1.8
-1.7
-1.6
-1.5
-1.4
-1.3
-1.2
-1.1
-1
</DataArray>
</CellData>
</Piece>
</RectilinearGrid>
</VTKFile>
