<?xml version="1.0"?>
<VTKFile type="RectilinearGrid">
<RectilinearGrid WholeExtent="0 100 0 0 0 0">
<Piece Extent="0 100 0 0 0 0">
<Coordinates>
<DataArray type="Float32" format="ascii">
0
10
20
30
40
50
60
70
80
90
100
110
120
130
140
150
160
170
180
190
200
210
220
230
240
250
260
270
280
290
300
310
320
330
340
350
360
370
380
390
400
410
420
430
440
450
460
470
480
490
500
510
520
530
540
550
560
570
580
590
600
610
620
630
640
650
660
670
680
690
700
710
720
730
740
750
760
770
780
790
800
810
820
830
840
850
860
870
880
890
900
910
920
930
940
950
960
970
980
990
1000
</DataArray>
<DataArray type="Float32" format="ascii">
0
</DataArray>
<DataArray type="Float32" format="ascii">
0
</DataArray>
</Coordinates>
<CellData>
<DataArray Name="h" type="Float32" format="ascii">
5.3804
5.38054
5.38084
5.38132
5.38199
5.38283
5.38386
5.38507
5.38646
5.38804
5.38979
5.39173
5.39385
5.39616
5.39864
5.40131
5.40417
5.40722
5.41045
5.41387
5.41748
5.42129
5.42529
5.42949
5.43388
5.43849
5.4433
5.44832
5.45355
5.45901
5.46469
5.47061
5.47676
5.48316
5.48981
5.49672
5.50389
5.51134
5.51909
5.52713
5.53548
5.54416
5.55317
5.56253
5.57226
5.58236
5.59286
5.60378
5.61512
5.62691
5.63915
5.65186
5.66506
5.67875
5.69296
5.70768
5.72292
5.73868
5.75496
5.77177
5.78908
5.80689
5.82518
5.84392
5.8631
5.88267
5.90262
5.92291
5.94353
5.96456
5.98628
6.00972
6.03811
6.0815
6.17022
6.38791
6.91405
7.93372
9.28618
10.4633
11.1892
11.5517
11.717
11.792
11.8282
11.848
11.8607
11.8703
11.8783
11.8853
11.8916
11.8973
11.9024
11.907
11.9109
11.9141
11.9168
11.9187
11.92
11.9206
</DataArray>
<DataArray Name="hu" type="Float32" format="ascii">
0.258379
0.775329
1.29246
1.80953
2.32653
2.84341
3.36016
3.87678
4.39322
4.90946
5.42548
5.94123
6.45669
6.97183
7.4866
8.00098
8.51491
9.02836
9.54128
10.0536
10.5654
11.0764
11.5868
12.0963
12.605
13.1128
13.6196
14.1253
14.63
15.1334
15.6355
16.1362
16.6354
17.1331
17.6291
18.1233
18.6156
19.1059
19.5941
20.0801
20.5636
21.0447
21.5231
21.9988
22.4715
22.9411
23.4076
23.8707
24.3303
24.7864
25.2387
25.6872
26.1318
26.5724
27.009
27.4414
27.8698
28.294
28.7142
29.1304
29.5426
29.9511
30.356
30.7574
31.1555
31.5507
31.943
32.3328
32.72
33.1042
33.4833
33.8509
34.1858
34.4232
34.3655
33.4309
30.1376
22.1825
9.65925
-2.57386
-10.4121
-14.0001
-15.1002
-15.0267
-14.4468
-13.6553
-12.7757
-11.859
-10.9261
-9.98562
-9.04111
-8.0941
-7.1453
-6.19513
-5.24386
-4.29172
-3.33889
-2.38554
-1.43182
-0.477448
</DataArray>
<DataArray Name="B" type="Float32" format="ascii">
-10.9
-10.8
-10.7
-10.6
-10.5
-10.4
-10.3
-10.2
-10.1
-10
-9.9
-9.8
-9.7
-9.6
-9.5
-9.4
-9.3
-9.2
-9.1
-9
-8.9
-8.8
-8.7
-8.6
-8.5
-8.4
-8.3
-8.2
-8.1
-8
-7.9
-7.8
-7.7
-7.6
-7.5
-7.4
-7.3
-7.2
-7.1
-7
-6.9
-6.8
-6.7
-6.6
-6.5
-6.4
-6.3
-6.2
-6.1
-6
-5.9
-5.8
-5.7
-5.6
-5.5
-5.4
-5.3
-5.2
-5.1
-5
-4.9
-4.8
-4.7
-4.6
-4.5
-4.4
-4.3
-4.2
-4.1
-4
-3.9
-3.8
-3.7
-3.6
-3.5
-3.4
-3.3
-3.2
-3.1
-3
-2.9
-2.8
-2.7
-2.6
-2.5
-2.4
-2.3
-2.2
-2.1
-2
-1.9
-1.8
-1.7
-1.6
-1.5
-1.4
-1.3
-1.2
-1.1
-1
</DataArray>
</CellData>
</Piece>
</RectilinearGrid>
</VTKFile>
