<?xml version="1.0"?>
<VTKFile type="RectilinearGrid">
<RectilinearGrid WholeExtent="0 100 0 0 0 0">
<Piece Extent="0 100 0 0 0 0">
<Coordinates>
<DataArray type="Float32" format="ascii">
0
10
20
30
40
50
60
70
80
90
100
110
120
130
140
150
160
170
180
190
200
210
220
230
240
250
260
270
280
290
300
310
320
330
340
350
360
370
380
390
400
410
420
430
440
450
460
470
480
490
500
510
520
530
540
550
560
570
580
590
600
610
620
630
640
650
660
670
680
690
700
710
720
730
740
750
760
770
780
790
800
810
820
830
840
850
860
870
880
890
900
910
920
930
940
950
960
970
980
990
1000
</DataArray>
<DataArray type="Float32" format="ascii">
0
</DataArray>
<DataArray type="Float32" format="ascii">
0
</DataArray>
</Coordinates>
<CellData>
<DataArray Name="h" type="Float32" format="ascii">
5.924
5.92412
5.92438
5.9248
5.9254
5.92615
5.92706
5.92813
5.92937
5.93076
5.9323
5.934
5.93586
5.93787
5.94003
5.94235
5.94481
5.94742
5.95019
5.9531
5.95616
5.95936
5.96272
5.96621
5.96985
5.97364
5.97757
5.98165
5.98587
5.99024
5.99476
5.99943
6.00424
6.00921
6.01434
6.01962
6.02507
6.03068
6.03647
6.04244
6.04859
6.05493
6.06147
6.06822
6.07519
6.08238
6.08982
6.09751
6.10547
6.11371
6.12226
6.13113
6.14033
6.1499
6.15984
6.1702
6.18097
6.1922
6.2039
6.2161
6.2288
6.24204
6.25582
6.27016
6.28506
6.30053
6.31658
6.33318
6.35032
6.36799
6.38615
6.40476
6.42379
6.44318
6.46288
6.48283
6.50296
6.52322
6.54357
6.56401
6.58476
6.60678
6.63358
6.67755
6.78011
7.06451
7.78949
9.12629
10.672
11.8097
12.4152
12.6853
12.7977
12.8444
12.8649
12.8751
12.8808
12.8843
12.8864
12.8874
</DataArray>
<DataArray Name="hu" type="Float32" format="ascii">
0.290539
0.871841
1.45334
2.03478
2.61617
3.19749
3.77871
4.35984
4.94086
5.52173
6.10242
6.68293
7.26322
7.84328
8.42307
9.00257
9.58175
10.1606
10.739
11.3171
11.8946
12.4717
13.0483
13.6242
14.1996
14.7742
15.3482
15.9213
16.4936
17.0651
17.6355
18.2049
18.7732
19.3404
19.9062
20.4707
21.0338
21.5953
22.1551
22.7132
23.2693
23.8235
24.3756
24.9254
25.4728
26.0177
26.5598
27.0992
27.6355
28.1686
28.6983
29.2245
29.747
30.2655
30.7799
31.29
31.7955
32.2964
32.7925
33.2835
33.7695
34.2501
34.7255
35.1954
35.66
36.1191
36.5729
37.0213
37.4647
37.9031
38.3368
38.766
39.191
39.6123
40.03
40.4446
40.8564
41.2658
41.6729
42.0777
42.4789
42.8712
43.2355
43.5051
43.452
42.3212
38.0463
27.8966
13.7694
2.21187
-3.94785
-6.21609
-6.55635
-6.08451
-5.29432
-4.38352
-3.42755
-2.45449
-1.47475
-0.491962
</DataArray>
<DataArray Name="B" type="Float32" format="ascii">
-10.9
-10.8
-10.7
-10.6
-10.5
-10.4
-10.3
-10.2
-10.1
-10
-9.9
-9.8
-9.7
-9.6
-9.5
-9.4
-9.3
-9.2
-9.1
-9
-8.9
-8.8
-8.7
-8.6
-8.5
-8.4
-8.3
-8.2
-8.1
-8
-7.9
-7.8
-7.7
-7.6
-7.5
-7.4
-7.3
-7.2
-7.1
-7
-6.9
-6.8
-6.7
-6.6
-6.5
-6.4
-6.3
-6.2
-6.1
-6
-5.9
-5.8
-5.7
-5.6
-5.5
-5.4
-5.3
-5.2
-5.1
-5
-4.9
-4.8
-4.7
-4.6
-4.5
-4.4
-4.3
-4.2
-4.1
-4
-3.9
-3.8
-3.7
-3.6
-3.5
-3.4
-3.3
-3.2
-3.1
-3
-2.9
-2.8
-2.7
-2.6
-2.5
-2.4
-2.3
-2.2
-2.1
-2
-1.9
-1.8
-1.7
-1.6
-1.5
-1.4
-1.3
-1.2
-1.1
-1
</DataArray>
</CellData>
</Piece>
</RectilinearGrid>
</VTKFile>
