<?xml version="1.0"?>
<VTKFile type="RectilinearGrid">
<RectilinearGrid WholeExtent="0 100 0 0 0 0">
<Piece Extent="0 100 0 0 0 0">
<Coordinates>
<DataArray type="Float32" format="ascii">
0
10
20
30
40
50
60
70
80
90
100
110
120
130
140
150
160
170
180
190
200
210
220
230
240
250
260
270
280
290
300
310
320
330
340
350
360
370
380
390
400
410
420
430
440
450
460
470
480
490
500
510
520
530
540
550
560
570
580
590
600
610
620
630
640
650
660
670
680
690
700
710
720
730
740
750
760
770
780
790
800
810
820
830
840
850
860
870
880
890
900
910
920
930
940
950
960
970
980
990
1000
</DataArray>
<DataArray type="Float32" format="ascii">
0
</DataArray>
<DataArray type="Float32" format="ascii">
0
</DataArray>
</Coordinates>
<CellData>
<DataArray Name="h" type="Float32" format="ascii">
4.29035
4.2906
4.29111
4.2919
4.29298
4.29435
4.29601
4.29797
4.30023
4.3028
4.30567
4.30885
4.31236
4.31618
4.32034
4.32483
4.32966
4.33483
4.34037
4.34626
4.35252
4.35915
4.36617
4.37358
4.38138
4.38959
4.39821
4.40725
4.41671
4.42659
4.43692
4.44768
4.45888
4.47053
4.48263
4.49517
4.50817
4.52162
4.53552
4.54989
4.56478
4.58032
4.59684
4.61522
4.63769
4.66999
4.72649
4.84177
5.08979
5.58856
6.41374
7.42481
8.30951
8.88899
9.20266
9.35762
9.43299
9.47133
9.49292
9.50696
9.51759
9.52667
9.53504
9.54307
9.55093
9.55871
9.56643
9.57411
9.58175
9.58935
9.5969
9.60439
9.61182
9.61917
9.62644
9.63361
9.64068
9.64763
9.65445
9.66113
9.66766
9.67403
9.68022
9.68623
9.69203
9.6976
9.70294
9.70802
9.71283
9.71734
9.72154
9.72541
9.72893
9.73207
9.73482
9.73714
9.73902
9.74043
9.74133
9.74175
</DataArray>
<DataArray Name="hu" type="Float32" format="ascii">
0.185152
0.555584
0.926077
1.29641
1.66652
2.03634
2.40581
2.77485
3.14338
3.51134
3.87867
4.24527
4.61106
4.976
5.33997
5.70291
6.06475
6.42539
6.78476
7.14277
7.49935
7.85442
8.20791
8.55973
8.90982
9.25812
9.60455
9.94907
10.2916
10.6321
10.9706
11.3069
11.6412
11.9733
12.3033
12.6312
12.957
13.2806
13.6022
13.9215
14.2381
14.5508
14.8567
15.1479
15.4042
15.5745
15.53
14.955
13.1345
8.75914
0.532037
-10.6938
-21.309
-28.4534
-32.0919
-33.4873
-33.7212
-33.4071
-32.8431
-32.1656
-31.4358
-30.6812
-29.9143
-29.1407
-28.3631
-27.5827
-26.8002
-26.0159
-25.2299
-24.4425
-23.6536
-22.8633
-22.0717
-21.2789
-20.4849
-19.6898
-18.8937
-18.0967
-17.2986
-16.4997
-15.6999
-14.8993
-14.0979
-13.2958
-12.493
-11.6896
-10.8857
-10.0812
-9.27632
-8.47101
-7.66534
-6.85935
-6.05309
-5.24658
-4.43988
-3.633
-2.82599
-2.01888
-1.21172
-0.404065
</DataArray>
<DataArray Name="B" type="Float32" format="ascii">
-10.9
-10.8
-10.7
-10.6
-10.5
-10.4
-10.3
-10.2
-10.1
-10
-9.9
-9.8
-9.7
-9.6
-9.5
-9.4
-9.3
-9.2
-9.1
-9
-8.9
-8.8
-8.7
-8.6
-8.5
-8.4
-8.3
-8.2
-8.1
-8
-7.9
-7.8
-7.7
-7.6
-7.5
-7.4
-7.3
-7.2
-7.1
-7
-6.9
-6.8
-6.7
-6.6
-6.5
-6.4
-6.3
-6.2
-6.1
-6
-5.9
-5.8
-5.7
-5.6
-5.5
-5.4
-5.3
-5.2
-5.1
-5
-4.9
-4.8
-4.7
-4.6
-4.5
-4.4
-4.3
-4.2
-4.1
-4
-3.9
-3.8
-3.7
-3.6
-3.5
-3.4
-3.3
-3.2
-3.1
-3
-2.9
-2.8
-2.7
-2.6
-2.5
-2.4
-2.3
-2.2
-2.1
-2
-1.9
-1.8
-1.7
-1.6
-1.5
-1.4
-1.3
-1.2
-1.1
-1
</DataArray>
</CellData>
</Piece>
</RectilinearGrid>
</VTKFile>
