<?xml version="1.0"?>
<VTKFile type="RectilinearGrid">
<RectilinearGrid WholeExtent="0 100 0 0 0 0">
<Piece Extent="0 100 0 0 0 0">
<Coordinates>
<DataArray type="Float32" format="ascii">
0
10
20
30
40
50
60
70
80
90
100
110
120
130
140
150
160
170
180
190
200
210
220
230
240
250
260
270
280
290
300
310
320
330
340
350
360
370
380
390
400
410
420
430
440
450
460
470
480
490
500
510
520
530
540
550
560
570
580
590
600
610
620
630
640
650
660
670
680
690
700
710
720
730
740
750
760
770
780
790
800
810
820
830
840
850
860
870
880
890
900
910
920
930
940
950
960
970
980
990
1000
</DataArray>
<DataArray type="Float32" format="ascii">
0
</DataArray>
<DataArray type="Float32" format="ascii">
0
</DataArray>
</Coordinates>
<CellData>
<DataArray Name="h" type="Float32" format="ascii">
3.5866
3.58888
3.59367
3.60138
3.61256
3.6279
3.64816
3.67407
3.70636
3.74561
3.79229
3.84668
3.90887
3.97877
4.05615
4.14065
4.23179
4.32903
4.43182
4.53954
4.65162
4.76749
4.88659
5.00842
5.13248
5.25834
5.38556
5.51376
5.64259
5.7717
5.90078
6.02952
6.15765
6.28488
6.41094
6.53558
6.65853
6.77953
6.89832
7.01464
7.12822
7.23878
7.34605
7.44975
7.54959
7.6453
7.7366
7.82323
7.90495
7.98154
8.05283
8.11869
8.17907
8.23395
8.28344
8.32768
8.36695
8.40155
8.43189
8.45839
8.48152
8.5017
8.51936
8.53484
8.54841
8.56028
8.57056
8.57931
8.58656
8.59231
8.59659
8.59942
8.6009
8.60112
8.60023
8.59838
8.59571
8.59237
8.58849
8.58415
8.57943
8.57439
8.56907
8.56347
8.55762
8.55148
8.54507
8.53835
8.53129
8.52383
8.51583
8.507
8.49675
8.48381
8.46591
8.44084
8.41936
8.48954
8.93983
9.78678
</DataArray>
<DataArray Name="hu" type="Float32" format="ascii">
0.0296648
0.0938839
0.172809
0.276493
0.415305
0.599751
0.84021
1.14653
1.52761
1.99096
2.54238
3.18577
3.92308
4.75439
5.67818
6.69152
7.79044
8.97022
10.2256
11.5513
12.9415
14.3909
15.8942
17.4461
19.0418
20.6765
22.3458
24.0453
25.7709
27.5186
29.2844
31.0644
32.8547
34.6515
36.4508
38.2484
40.0402
41.8218
43.5886
45.336
47.0588
48.7518
50.4097
52.0266
53.5967
55.1139
56.5721
57.9651
59.2868
60.5314
61.6934
62.7679
63.7509
64.6391
65.4307
66.125
66.7229
67.2266
67.6401
67.9686
68.2189
68.3986
68.5163
68.5811
68.602
68.5882
68.5482
68.4896
68.4192
68.3425
68.2638
68.1863
68.112
68.042
67.9765
67.9156
67.8586
67.805
67.7543
67.7059
67.6594
67.6143
67.5706
67.528
67.4864
67.4458
67.4061
67.367
67.328
67.2883
67.2453
67.1935
67.12
66.9941
66.7409
66.1711
64.7688
60.9589
49.6171
20.7836
</DataArray>
<DataArray Name="B" type="Float32" format="ascii">
-10.9
-10.8
-10.7
-10.6
-10.5
-10.4
-10.3
-10.2
-10.1
-10
-9.9
-9.8
-9.7
-9.6
-9.5
-9.4
-9.3
-9.2
-9.1
-9
-8.9
-8.8
-8.7
-8.6
-8.5
-8.4
-8.3
-8.2
-8.1
-8
-7.9
-7.8
-7.7
-7.6
-7.5
-7.4
-7.3
-7.2
-7.1
-7
-6.9
-6.8
-6.7
-6.6
-6.5
-6.4
-6.3
-6.2
-6.1
-6
-5.9
-5.8
-5.7
-5.6
-5.5
-5.4
-5.3
-5.2
-5.1
-5
-4.9
-4.8
-4.7
-4.6
-4.5
-4.4
-4.3
-4.2
-4.1
-4
-3.9
-3.8
-3.7
-3.6
-3.5
-3.4
-3.3
-3.2
-3.1
-3
-2.9
-2.8
-2.7
-2.6
-2.5
-2.4
-2.3
-2.2
-2.1
-2
-1.9
-1.8
-1.7
-1.6
-1.5
-1.4
-1.3
-1.2
-1.1
-1
</DataArray>
</CellData>
</Piece>
</RectilinearGrid>
</VTKFile>
