<?xml version="1.0"?>
<VTKFile type="RectilinearGrid">
<RectilinearGrid WholeExtent="0 100 0 0 0 0">
<Piece Extent="0 100 0 0 0 0">
<Coordinates>
<DataArray type="Float32" format="ascii">
0
10
20
30
40
50
60
70
80
90
100
110
120
130
140
150
160
170
180
190
200
210
220
230
240
250
260
270
280
290
300
310
320
330
340
350
360
370
380
390
400
410
420
430
440
450
460
470
480
490
500
510
520
530
540
550
560
570
580
590
600
610
620
630
640
650
660
670
680
690
700
710
720
730
740
750
760
770
780
790
800
810
820
830
840
850
860
870
880
890
900
910
920
930
940
950
960
970
980
990
1000
</DataArray>
<DataArray type="Float32" format="ascii">
0
</DataArray>
<DataArray type="Float32" format="ascii">
0
</DataArray>
</Coordinates>
<CellData>
<DataArray Name="h" type="Float32" format="ascii">
6.4813
6.48874
6.50404
6.52776
6.56052
6.60312
6.65636
6.72098
6.79742
6.88565
6.98501
7.09411
7.21084
7.33252
7.45611
7.57852
7.69689
7.8088
7.91236
8.00624
8.08967
8.16232
8.22427
8.27595
8.31807
8.35153
8.37742
8.39687
8.41104
8.421
8.42773
8.43207
8.43468
8.43609
8.43668
8.43673
8.43642
8.43589
8.4352
8.43441
8.43353
8.4326
8.43162
8.43058
8.42949
8.42836
8.42719
8.42596
8.42469
8.42336
8.42198
8.42054
8.41905
8.4175
8.41589
8.41423
8.4125
8.41071
8.40884
8.40689
8.40484
8.4027
8.40048
8.39816
8.39573
8.39312
8.39013
8.38625
8.38021
8.36895
8.34537
8.29315
8.17607
7.91902
7.39144
6.46361
5.26166
4.29038
3.80977
3.64156
3.59418
3.58444
3.58506
3.58788
3.59059
3.59263
3.594
3.59484
3.59531
3.59554
3.59564
3.59566
3.59566
3.59564
3.59562
3.5956
3.59558
3.59557
3.59556
3.59555
</DataArray>
<DataArray Name="hu" type="Float32" format="ascii">
2.29616
6.87607
11.4152
15.8835
20.2527
24.4955
28.5861
32.5013
36.2218
39.7332
43.0271
46.1013
48.9592
51.6081
54.0575
56.3163
58.3909
60.2847
61.998
63.5295
64.8775
66.042
67.0261
67.8368
68.4851
68.9861
69.3573
69.6183
69.7886
69.8871
69.9307
69.9338
69.9081
69.8627
69.8043
69.7378
69.6663
69.5919
69.516
69.4393
69.3624
69.2854
69.2085
69.1318
69.0553
68.979
68.9028
68.8269
68.7511
68.6756
68.6001
68.5249
68.4498
68.3748
68.2999
68.2251
68.1502
68.0754
68.0006
67.9258
67.8509
67.7758
67.7001
67.6233
67.5441
67.4599
67.3653
67.2479
67.0802
66.8004
66.2699
65.1798
62.8669
58.036
48.7575
34.1403
18.0499
7.12656
2.40595
0.82105
0.312831
0.133339
0.0560758
0.0151281
-0.00923307
-0.0237976
-0.0317556
-0.0351803
-0.0356207
-0.0342229
-0.0317793
-0.0287907
-0.0255446
-0.0221898
-0.0187928
-0.0153812
-0.0119655
-0.00854985
-0.00513378
-0.00171263
</DataArray>
<DataArray Name="B" type="Float32" format="ascii">
-10.9
-10.8
-10.7
-10.6
-10.5
-10.4
-10.3
-10.2
-10.1
-10
-9.9
-9.8
-9.7
-9.6
-9.5
-9.4
-9.3
-9.2
-9.1
-9
-8.9
-8.8
-8.7
-8.6
-8.5
-8.4
-8.3
-8.2
-8.1
-8
-7.9
-7.8
-7.7
-7.6
-7.5
-7.4
-7.3
-7.2
-7.1
-7
-6.9
-6.8
-6.7
-6.6
-6.5
-6.4
-6.3
-6.2
-6.1
-6
-5.9
-5.8
-5.7
-5.6
-5.5
-5.4
-5.3
-5.2
-5.1
-5
-4.9
-4.8
-4.7
-4.6
-4.5
-4.4
-4.3
-4.2
-4.1
-4
-3.9
-3.8
-3.7
-3.6
-3.5
-3.4
-3.3
-3.2
-3.1
-3
-2.9
-2.8
-2.7
-2.6
-2.5
-2.4
-2.3
-2.2
-2.1
-2
-1.9
-1.8
-1.7
-1.6
-1.5
-1.4
-1.3
-1.2
-1.1
-1
</DataArray>
</CellData>
</Piece>
</RectilinearGrid>
</VTKFile>
