<?xml version="1.0"?>
<VTKFile type="RectilinearGrid">
<RectilinearGrid WholeExtent="0 100 0 0 0 0">
<Piece Extent="0 100 0 0 0 0">
<Coordinates>
<DataArray type="Float32" format="ascii">
0
10
20
30
40
50
60
70
80
90
100
110
120
130
140
150
160
170
180
190
200
210
220
230
240
250
260
270
280
290
300
310
320
330
340
350
360
370
380
390
400
410
420
430
440
450
460
470
480
490
500
510
520
530
540
550
560
570
580
590
600
610
620
630
640
650
660
670
680
690
700
710
720
730
740
750
760
770
780
790
800
810
820
830
840
850
860
870
880
890
900
910
920
930
940
950
960
970
980
990
1000
</DataArray>
<DataArray type="Float32" format="ascii">
0
</DataArray>
<DataArray type="Float32" format="ascii">
0
</DataArray>
</Coordinates>
<CellData>
<DataArray Name="h" type="Float32" format="ascii">
6.44655
6.44666
6.44689
6.44728
6.44782
6.44851
6.44934
6.45032
6.45144
6.45271
6.45411
6.45565
6.45733
6.45913
6.46107
6.46314
6.46533
6.46765
6.47009
6.47264
6.47532
6.47811
6.48101
6.48402
6.48714
6.49036
6.49369
6.49711
6.50064
6.50426
6.50797
6.51178
6.51568
6.51967
6.52375
6.52791
6.53216
6.5365
6.54092
6.54543
6.55003
6.55472
6.5595
6.56437
6.56935
6.57443
6.57962
6.58493
6.59037
6.59594
6.60166
6.60753
6.61357
6.6198
6.62623
6.63288
6.63977
6.64692
6.65436
6.66212
6.67022
6.67869
6.68757
6.69688
6.70666
6.71694
6.72775
6.73911
6.75105
6.76358
6.77673
6.79049
6.80488
6.81987
6.83544
6.85157
6.86822
6.88533
6.90282
6.92064
6.9387
6.95692
6.9752
6.99348
7.01166
7.02964
7.04735
7.0647
7.08173
7.09888
7.11862
7.15183
7.24307
7.5494
8.43468
10.0887
11.8373
12.9469
13.4389
13.6026
</DataArray>
<DataArray Name="hu" type="Float32" format="ascii">
0.320889
0.962882
1.60509
2.24727
2.88938
3.53143
4.1734
4.81527
5.45703
6.09867
6.74014
7.38144
8.02256
8.66346
9.3041
9.94448
10.5846
11.2243
11.8638
12.5028
13.1414
13.7796
14.4173
15.0545
15.6911
16.3271
16.9624
17.5971
18.231
18.8641
19.4964
20.1277
20.7581
21.3875
22.0157
22.6427
23.2685
23.893
24.516
25.1375
25.7574
26.3755
26.9919
27.6063
28.2186
28.8287
29.4365
30.0417
30.6443
31.2441
31.8409
32.4346
33.0249
33.6117
34.1948
34.7739
35.3488
35.9193
36.4852
37.0461
37.6019
38.1522
38.6968
39.2355
39.768
40.2942
40.8137
41.3265
41.8323
42.3312
42.8229
43.3076
43.7851
44.2557
44.7195
45.1767
45.6276
46.0725
46.5119
46.9461
47.3756
47.8008
48.2222
48.6401
49.0549
49.4669
49.8766
50.2842
50.6894
51.0899
51.4749
51.7964
51.8534
50.8234
45.9865
33.7477
17.8503
6.64635
1.72091
0.254101
</DataArray>
<DataArray Name="B" type="Float32" format="ascii">
-10.9
-10.8
-10.7
-10.6
-10.5
-10.4
-10.3
-10.2
-10.1
-10
-9.9
-9.8
-9.7
-9.6
-9.5
-9.4
-9.3
-9.2
-9.1
-9
-8.9
-8.8
-8.7
-8.6
-8.5
-8.4
-8.3
-8.2
-8.1
-8
-7.9
-7.8
-7.7
-7.6
-7.5
-7.4
-7.3
-7.2
-7.1
-7
-6.9
-6.8
-6.7
-6.6
-6.5
-6.4
-6.3
-6.2
-6.1
-6
-5.9
-5.8
-5.7
-5.6
-5.5
-5.4
-5.3
-5.2
-5.1
-5
-4.9
-4.8
-4.7
-4.6
-4.5
-4.4
-4.3
-4.2
-4.1
-4
-3.9
-3.8
-3.7
-3.6
-3.5
-3.4
-3.3
-3.2
-3.1
-3
-2.9
-2.8
-2.7
-2.6
-2.5
-2.4
-2.3
-2.2
-2.1
-2
-1.9
-1.8
-1.7
-1.6
-1.5
-1.4
-1.3
-1.2
-1.1
-1
</DataArray>
</CellData>
</Piece>
</RectilinearGrid>
</VTKFile>
