<?xml version="1.0"?>
<VTKFile type="RectilinearGrid">
<RectilinearGrid WholeExtent="0 100 0 0 0 0">
<Piece Extent="0 100 0 0 0 0">
<Coordinates>
<DataArray type="Float32" format="ascii">
0
10
20
30
40
50
60
70
80
90
100
110
120
130
140
150
160
170
180
190
200
210
220
230
240
250
260
270
280
290
300
310
320
330
340
350
360
370
380
390
400
410
420
430
440
450
460
470
480
490
500
510
520
530
540
550
560
570
580
590
600
610
620
630
640
650
660
670
680
690
700
710
720
730
740
750
760
770
780
790
800
810
820
830
840
850
860
870
880
890
900
910
920
930
940
950
960
970
980
990
1000
</DataArray>
<DataArray type="Float32" format="ascii">
0
</DataArray>
<DataArray type="Float32" format="ascii">
0
</DataArray>
</Coordinates>
<CellData>
<DataArray Name="h" type="Float32" format="ascii">
3.57097
3.5709
3.57078
3.57059
3.57035
3.57005
3.5697
3.56933
3.56896
3.56863
3.56843
3.56844
3.56882
3.56978
3.57157
3.57454
3.57909
3.58571
3.59495
3.60737
3.62359
3.64417
3.66964
3.70046
3.73696
3.77936
3.82776
3.88212
3.94232
4.00811
4.07919
4.1552
4.23575
4.32042
4.4088
4.50049
4.59511
4.69229
4.79172
4.89307
4.99609
5.10053
5.20618
5.31284
5.42035
5.52856
5.63732
5.74651
5.85598
5.96561
6.07523
6.18469
6.2938
6.40235
6.51013
6.61689
6.72238
6.82634
6.92854
7.02871
7.12665
7.22214
7.31502
7.40512
7.49233
7.57652
7.65761
7.7355
7.81011
7.88137
7.94918
8.01345
8.0741
8.13104
8.18418
8.23345
8.27878
8.32019
8.35779
8.39212
8.42499
8.46243
8.52408
8.67092
9.06758
10.0094
11.603
13.3293
14.5671
15.2299
15.5311
15.6579
15.71
15.7318
15.7415
15.7462
15.7488
15.7502
15.7511
15.7515
</DataArray>
<DataArray Name="hu" type="Float32" format="ascii">
0.00529153
0.0158631
0.0263979
0.0368671
0.0472635
0.0576344
0.0680672
0.0787364
0.0899718
0.102295
0.116499
0.133757
0.155725
0.184661
0.223535
0.276082
0.346843
0.441099
0.564768
0.724197
0.92587
1.17609
1.48064
1.84449
2.27155
2.76455
3.32494
3.95299
4.64785
5.40775
6.23014
7.11196
8.04972
9.03972
10.0782
11.1613
12.2852
13.4464
14.6414
15.8666
17.1191
18.3956
19.6933
21.0094
22.3413
23.6864
25.0425
26.4074
27.7791
29.1558
30.5359
31.918
33.301
34.6838
36.0655
37.4453
38.8224
40.1959
41.5648
42.9278
44.2833
45.6294
46.9641
48.2847
49.5885
50.8722
52.1325
53.3659
54.5688
55.7375
56.8683
57.9578
59.0024
59.9988
60.944
61.8352
62.6699
63.446
64.1612
64.8116
65.3873
65.8561
66.1122
65.8087
63.8601
57.5951
44.256
26.9886
13.0893
5.23166
1.67578
0.281001
-0.194665
-0.314942
-0.308343
-0.260948
-0.202892
-0.143644
-0.0854748
-0.0283592
</DataArray>
<DataArray Name="B" type="Float32" format="ascii">
-10.9
-10.8
-10.7
-10.6
-10.5
-10.4
-10.3
-10.2
-10.1
-10
-9.9
-9.8
-9.7
-9.6
-9.5
-9.4
-9.3
-9.2
-9.1
-9
-8.9
-8.8
-8.7
-8.6
-8.5
-8.4
-8.3
-8.2
-8.1
-8
-7.9
-7.8
-7.7
-7.6
-7.5
-7.4
-7.3
-7.2
-7.1
-7
-6.9
-6.8
-6.7
-6.6
-6.5
-6.4
-6.3
-6.2
-6.1
-6
-5.9
-5.8
-5.7
-5.6
-5.5
-5.4
-5.3
-5.2
-5.1
-5
-4.9
-4.8
-4.7
-4.6
-4.5
-4.4
-4.3
-4.2
-4.1
-4
-3.9
-3.8
-3.7
-3.6
-3.5
-3.4
-3.3
-3.2
-3.1
-3
-2.9
-2.8
-2.7
-2.6
-2.5
-2.4
-2.3
-2.2
-2.1
-2
-1.9
-1.8
-1.7
-1.6
-1.5
-1.4
-1.3
-1.2
-1.1
-1
</DataArray>
</CellData>
</Piece>
</RectilinearGrid>
</VTKFile>
