<?xml version="1.0"?>
<VTKFile type="RectilinearGrid">
<RectilinearGrid WholeExtent="0 100 0 0 0 0">
<Piece Extent="0 100 0 0 0 0">
<Coordinates>
<DataArray type="Float32" format="ascii">
0
10
20
30
40
50
60
70
80
90
100
110
120
130
140
150
160
170
180
190
200
210
220
230
240
250
260
270
280
290
300
310
320
330
340
350
360
370
380
390
400
410
420
430
440
450
460
470
480
490
500
510
520
530
540
550
560
570
580
590
600
610
620
630
640
650
660
670
680
690
700
710
720
730
740
750
760
770
780
790
800
810
820
830
840
850
860
870
880
890
900
910
920
930
940
950
960
970
980
990
1000
</DataArray>
<DataArray type="Float32" format="ascii">
0
</DataArray>
<DataArray type="Float32" format="ascii">
0
</DataArray>
</Coordinates>
<CellData>
<DataArray Name="h" type="Float32" format="ascii">
3.57713
3.57728
3.57763
3.5783
3.57948
3.58144
3.58452
3.58918
3.59595
3.60546
3.61839
3.63546
3.65739
3.68484
3.71839
3.75849
3.80544
3.8594
3.92035
3.98815
4.06251
4.14308
4.22942
4.32103
4.41741
4.51804
4.62243
4.73007
4.84051
4.95332
5.06808
5.18442
5.302
5.42048
5.53959
5.65903
5.77855
5.89792
6.0169
6.13529
6.25287
6.36947
6.48488
6.59894
6.71147
6.8223
6.93129
7.03826
7.14309
7.24563
7.34574
7.44329
7.53814
7.63017
7.71922
7.80514
7.88774
7.96681
8.04213
8.11344
8.18047
8.24294
8.30058
8.35315
8.40048
8.44247
8.47909
8.51043
8.5367
8.55817
8.57523
8.58829
8.59784
8.60434
8.60825
8.61002
8.61002
8.60859
8.60601
8.60251
8.59826
8.59341
8.58805
8.58225
8.57606
8.56953
8.56269
8.55568
8.54908
8.54537
8.55462
8.61567
8.86169
9.62491
11.2167
13.1708
14.6115
15.3386
15.6274
15.7194
</DataArray>
<DataArray Name="hu" type="Float32" format="ascii">
0.0028058
0.00913856
0.017762
0.030591
0.0500881
0.0794593
0.122813
0.185265
0.272944
0.392877
0.552781
0.760739
1.02479
1.35249
1.75046
2.22407
2.77719
3.41207
4.1294
4.92841
5.80712
6.76249
7.79078
8.88774
10.0488
11.2693
12.5446
13.87
15.2412
16.654
18.1043
19.5883
21.1025
22.6434
24.2077
25.7924
27.3944
29.0108
30.6387
32.2751
33.9172
35.562
37.2064
38.8472
40.4813
42.1051
43.7149
45.3068
46.8768
48.4205
49.9332
51.4101
52.8464
54.2369
55.5764
56.86
58.0829
59.2405
60.3288
61.3446
62.2851
63.1486
63.9341
64.6416
65.2723
65.8279
66.3113
66.726
67.0762
67.3669
67.6032
67.7909
67.9357
68.0434
68.1195
68.1695
68.1981
68.2097
68.2082
68.1967
68.1779
68.154
68.1267
68.0972
68.0667
68.0357
68.0047
67.9734
67.9393
67.8911
67.782
67.4265
66.1075
61.4078
49.0582
30.3283
14.3386
5.54197
1.84828
0.421214
</DataArray>
<DataArray Name="B" type="Float32" format="ascii">
-10.9
-10.8
-10.7
-10.6
-10.5
-10.4
-10.3
-10.2
-10.1
-10
-9.9
-9.8
-9.7
-9.6
-9.5
-9.4
-9.3
-9.2
-9.1
-9
-8.9
-8.8
-8.7
-8.6
-8.5
-8.4
-8.3
-8.2
-8.1
-8
-7.9
-7.8
-7.7
-7.6
-7.5
-7.4
-7.3
-7.2
-7.1
-7
-6.9
-6.8
-6.7
-6.6
-6.5
-6.4
-6.3
-6.2
-6.1
-6
-5.9
-5.8
-5.7
-5.6
-5.5
-5.4
-5.3
-5.2
-5.1
-5
-4.9
-4.8
-4.7
-4.6
-4.5
-4.4
-4.3
-4.2
-4.1
-4
-3.9
-3.8
-3.7
-3.6
-3.5
-3.4
-3.3
-3.2
-3.1
-3
-2.9
-2.8
-2.7
-2.6
-2.5
-2.4
-2.3
-2.2
-2.1
-2
-1.9
-1.8
-1.7
-1.6
-1.5
-1.4
-1.3
-1.2
-1.1
-1
</DataArray>
</CellData>
</Piece>
</RectilinearGrid>
</VTKFile>
