<?xml version="1.0"?>
<VTKFile type="RectilinearGrid">
<RectilinearGrid WholeExtent="0 100 0 0 0 0">
<Piece Extent="0 100 0 0 0 0">
<Coordinates>
<DataArray type="Float32" format="ascii">
0
10
20
30
40
50
60
70
80
90
100
110
120
130
140
150
160
170
180
190
200
210
220
230
240
250
260
270
280
290
300
310
320
330
340
350
360
370
380
390
400
410
420
430
440
450
460
470
480
490
500
510
520
530
540
550
560
570
580
590
600
610
620
630
640
650
660
670
680
690
700
710
720
730
740
750
760
770
780
790
800
810
820
830
840
850
860
870
880
890
900
910
920
930
940
950
960
970
980
990
1000
</DataArray>
<DataArray type="Float32" format="ascii">
0
</DataArray>
<DataArray type="Float32" format="ascii">
0
</DataArray>
</Coordinates>
<CellData>
<DataArray Name="h" type="Float32" format="ascii">
5.77718
5.78916
5.81351
5.85066
5.901
5.96489
6.04257
6.13398
6.23863
6.35551
6.48302
6.61906
6.76113
6.90656
7.05271
7.19711
7.33765
7.47255
7.60041
7.72011
7.83081
7.93186
8.02286
8.10357
8.17397
8.23426
8.28487
8.32643
8.35975
8.38578
8.40555
8.42012
8.43048
8.43757
8.44218
8.44497
8.44647
8.44708
8.44709
8.4467
8.44604
8.44522
8.44427
8.44324
8.44213
8.44098
8.43977
8.43851
8.4372
8.43584
8.43443
8.43296
8.43144
8.42987
8.42825
8.42657
8.42482
8.42301
8.42112
8.41916
8.41713
8.41505
8.41293
8.41081
8.40873
8.40676
8.40497
8.4034
8.40203
8.40061
8.39825
8.39266
8.37823
8.34195
8.25442
8.05281
7.61894
6.80079
5.61495
4.51478
3.90838
3.6835
3.6162
3.59843
3.59455
3.59418
3.59451
3.59482
3.59501
3.5951
3.59512
3.59512
3.5951
3.59508
3.59505
3.59503
3.59502
3.595
3.59499
3.59499
</DataArray>
<DataArray Name="hu" type="Float32" format="ascii">
1.96695
5.89011
9.778
13.605
17.3485
20.9882
24.5068
27.8917
31.1351
34.2347
37.1935
40.0184
42.7186
45.3036
47.7808
50.1543
52.4235
54.584
56.6275
58.5438
60.3213
61.949
63.4177
64.7207
65.8546
66.8203
67.6229
68.2717
68.7794
69.1619
69.4367
69.6216
69.7343
69.7908
69.8051
69.7887
69.7509
69.6986
69.6368
69.5691
69.4979
69.4247
69.3504
69.2757
69.2008
69.1259
69.0511
68.9765
68.9021
68.828
68.754
68.6802
68.6066
68.5332
68.4599
68.3867
68.3136
68.2408
68.168
68.0954
68.0227
67.9499
67.8767
67.8027
67.7274
67.6498
67.5685
67.4806
67.3812
67.2596
67.0937
66.8348
66.3741
65.4673
63.5771
59.6032
51.695
38.2672
21.6649
8.86614
2.86485
0.840316
0.232149
0.0487394
-0.00991873
-0.0300076
-0.0367641
-0.0381555
-0.0370739
-0.0347726
-0.0318696
-0.0286825
-0.0253715
-0.0220096
-0.0186293
-0.0152445
-0.0118596
-0.00847358
-0.00508646
-0.0016967
</DataArray>
<DataArray Name="B" type="Float32" format="ascii">
-10.9
-10.8
-10.7
-10.6
-10.5
-10.4
-10.3
-10.2
-10.1
-10
-9.9
-9.8
-9.7
-9.6
-9.5
-9.4
-9.3
-9.2
-9.1
-9
-8.9
-8.8
-8.7
-8.6
-8.5
-8.4
-8.3
-8.2
-8.1
-8
-7.9
-7.8
-7.7
-7.6
-7.5
-7.4
-7.3
-7.2
-7.1
-7
-6.9
-6.8
-6.7
-6.6
-6.5
-6.4
-6.3
-6.2
-6.1
-6
-5.9
-5.8
-5.7
-5.6
-5.5
-5.4
-5.3
-5.2
-5.1
-5
-4.9
-4.8
-4.7
-4.6
-4.5
-4.4
-4.3
-4.2
-4.1
-4
-3.9
-3.8
-3.7
-3.6
-3.5
-3.4
-3.3
-3.2
-3.1
-3
-2.9
-2.8
-2.7
-2.6
-2.5
-2.4
-2.3
-2.2
-2.1
-2
-1.9
-1.8
-1.7
-1.6
-1.5
-1.4
-1.3
-1.2
-1.1
-1
</DataArray>
</CellData>
</Piece>
</RectilinearGrid>
</VTKFile>
