<?xml version="1.0"?>
<VTKFile type="RectilinearGrid">
<RectilinearGrid WholeExtent="0 100 0 0 0 0">
<Piece Extent="0 100 0 0 0 0">
<Coordinates>
<DataArray type="Float32" format="ascii">
0
10
20
30
40
50
60
70
80
90
100
110
120
130
140
150
160
170
180
190
200
210
220
230
240
250
260
270
280
290
300
310
320
330
340
350
360
370
380
390
400
410
420
430
440
450
460
470
480
490
500
510
520
530
540
550
560
570
580
590
600
610
620
630
640
650
660
670
680
690
700
710
720
730
740
750
760
770
780
790
800
810
820
830
840
850
860
870
880
890
900
910
920
930
940
950
960
970
980
990
1000
</DataArray>
<DataArray type="Float32" format="ascii">
0
</DataArray>
<DataArray type="Float32" format="ascii">
0
</DataArray>
</Coordinates>
<CellData>
<DataArray Name="h" type="Float32" format="ascii">
14
14
14
13.9999
13.9996
13.9989
13.9971
13.9928
13.9835
13.9648
13.9305
13.8719
13.7793
13.6428
13.4545
13.2096
12.9073
12.5504
12.1452
11.7002
11.2264
10.7365
10.2459
9.77236
9.33653
8.96023
8.66259
8.45376
8.32915
8.26957
8.24919
8.24621
8.24815
8.25034
8.25186
8.25274
8.2531
8.25297
8.25233
8.25096
8.24805
8.24115
8.22359
8.17896
8.07071
7.8271
7.33537
6.50022
5.42327
4.47043
3.89835
3.64247
3.54667
3.51431
3.50412
3.50112
3.50028
3.50007
3.50001
3.5
3.5
3.5
3.5
3.5
3.5
3.5
3.5
3.5
3.5
3.5
3.5
3.5
3.5
3.5
3.5
3.5
3.5
3.5
3.5
3.5
3.5
3.50001
3.50002
3.50006
3.50017
3.50046
3.50114
3.5026
3.50547
3.51056
3.51873
3.53043
3.54519
3.56142
3.57672
3.58886
3.59676
3.60083
3.60238
3.60278
</DataArray>
<DataArray Name="hu" type="Float32" format="ascii">
3.23006e-05
0.000155003
0.000568201
0.00192926
0.00596475
0.0170766
0.0453137
0.111441
0.254295
0.538821
1.06157
1.9484
3.34061
5.3703
8.13173
11.6591
15.9182
20.8123
26.1979
31.9025
37.7398
43.5188
49.049
54.1423
58.6183
62.3166
65.1242
67.0152
68.0844
68.5379
68.6248
68.549
68.4258
68.2983
68.1747
68.0542
67.9349
67.8154
67.6934
67.5636
67.4106
67.1894
66.7795
65.8874
63.8719
59.5287
51.1798
38.0488
22.904
11.083
4.72917
2.096
1.15001
0.836698
0.739147
0.710534
0.702653
0.700625
0.700142
0.700034
0.700004
0.699994
0.699991
0.699997
0.700003
0.700002
0.700002
0.700002
0.700002
0.700002
0.700001
0.699998
0.699996
0.699997
0.699999
0.700001
0.700001
0.7
0.7
0.699997
0.699987
0.699955
0.69985
0.699535
0.698678
0.69652
0.691508
0.680835
0.660094
0.623502
0.565332
0.48278
0.379398
0.266753
0.161799
0.0800652
0.0286746
0.00432168
-0.00258556
-0.00153094
</DataArray>
<DataArray Name="B" type="Float32" format="ascii">
-10.9
-10.8
-10.7
-10.6
-10.5
-10.4
-10.3
-10.2
-10.1
-10
-9.9
-9.8
-9.7
-9.6
-9.5
-9.4
-9.3
-9.2
-9.1
-9
-8.9
-8.8
-8.7
-8.6
-8.5
-8.4
-8.3
-8.2
-8.1
-8
-7.9
-7.8
-7.7
-7.6
-7.5
-7.4
-7.3
-7.2
-7.1
-7
-6.9
-6.8
-6.7
-6.6
-6.5
-6.4
-6.3
-6.2
-6.1
-6
-5.9
-5.8
-5.7
-5.6
-5.5
-5.4
-5.3
-5.2
-5.1
-5
-4.9
-4.8
-4.7
-4.6
-4.5
-4.4
-4.3
-4.2
-4.1
-4
-3.9
-3.8
-3.7
-3.6
-3.5
-3.4
-3.3
-3.2
-3.1
-3
-2.9
-2.8
-2.7
-2.6
-2.5
-2.4
-2.3
-2.2
-2.1
-2
-1.9
-1.8
-1.7
-1.6
-1.5
-1.4
-1.3
-1.2
-1.1
-1
</DataArray>
</CellData>
</Piece>
</RectilinearGrid>
</VTKFile>
