<?xml version="1.0"?>
<VTKFile type="RectilinearGrid">
<RectilinearGrid WholeExtent="0 100 0 0 0 0">
<Piece Extent="0 100 0 0 0 0">
<Coordinates>
<DataArray type="Float32" format="ascii">
0
10
20
30
40
50
60
70
80
90
100
110
120
130
140
150
160
170
180
190
200
210
220
230
240
250
260
270
280
290
300
310
320
330
340
350
360
370
380
390
400
410
420
430
440
450
460
470
480
490
500
510
520
530
540
550
560
570
580
590
600
610
620
630
640
650
660
670
680
690
700
710
720
730
740
750
760
770
780
790
800
810
820
830
840
850
860
870
880
890
900
910
920
930
940
950
960
970
980
990
1000
</DataArray>
<DataArray type="Float32" format="ascii">
0
</DataArray>
<DataArray type="Float32" format="ascii">
0
</DataArray>
</Coordinates>
<CellData>
<DataArray Name="h" type="Float32" format="ascii">
8.93188
8.93189
8.93195
8.93208
8.93226
8.93251
8.93281
8.93315
8.93354
8.93396
8.93441
8.93489
8.93538
8.93588
8.93639
8.9369
8.93739
8.93786
8.93831
8.93871
8.93908
8.93939
8.93963
8.9398
8.93988
8.93987
8.93975
8.93951
8.93913
8.93862
8.93795
8.93711
8.93608
8.93485
8.93341
8.93174
8.92982
8.92765
8.92518
8.92243
8.91935
8.91594
8.91217
8.90802
8.90348
8.89852
8.89311
8.88724
8.88087
8.87399
8.86655
8.85852
8.84982
8.84037
8.82998
8.81831
8.80468
8.78772
8.76452
8.7288
8.66706
8.55029
8.31918
7.86801
7.07155
5.9527
4.86786
4.17394
3.84528
3.70391
3.63613
3.59465
3.5625
3.53387
3.50677
3.48053
3.45493
3.42991
3.40545
3.38159
3.35835
3.33576
3.31387
3.29272
3.27237
3.25289
3.23432
3.21675
3.20023
3.18483
3.17063
3.15767
3.14601
3.1357
3.12677
3.11925
3.11315
3.10851
3.10535
3.10373
</DataArray>
<DataArray Name="hu" type="Float32" format="ascii">
0.462679
1.3883
2.31413
3.2398
4.16525
5.09043
6.01527
6.93971
7.86366
8.78706
9.70983
10.6319
11.5532
12.4737
13.3932
14.3117
15.2291
16.1453
17.0603
17.9738
18.8859
19.7964
20.7051
21.6121
22.5171
23.4201
24.3208
25.2193
26.1152
27.0086
27.8991
28.7867
29.6711
30.5523
31.4299
32.3039
33.1739
34.0399
34.9015
35.7585
36.6106
37.4577
38.2993
39.1353
39.9654
40.7891
41.6062
42.4163
43.2189
44.0138
44.8002
45.5775
46.3446
47.1
47.8406
48.561
49.25
49.885
50.4178
50.7459
50.648
49.6548
46.8368
40.6803
29.892
16.0868
4.52083
-1.70759
-4.08137
-4.75153
-4.80592
-4.65205
-4.42992
-4.1869
-3.93927
-3.69284
-3.44987
-3.21144
-2.97824
-2.75082
-2.52972
-2.31546
-2.10857
-1.90958
-1.719
-1.53735
-1.36511
-1.20272
-1.05056
-0.908943
-0.778074
-0.658026
-0.548708
-0.449835
-0.360895
-0.281111
-0.209424
-0.144484
-0.0846436
-0.0278874
</DataArray>
<DataArray Name="B" type="Float32" format="ascii">
-10.9
-10.8
-10.7
-10.6
-10.5
-10.4
-10.3
-10.2
-10.1
-10
-9.9
-9.8
-9.7
-9.6
-9.5
-9.4
-9.3
-9.2
-9.1
-9
-8.9
-8.8
-8.7
-8.6
-8.5
-8.4
-8.3
-8.2
-8.1
-8
-7.9
-7.8
-7.7
-7.6
-7.5
-7.4
-7.3
-7.2
-7.1
-7
-6.9
-6.8
-6.7
-6.6
-6.5
-6.4
-6.3
-6.2
-6.1
-6
-5.9
-5.8
-5.7
-5.6
-5.5
-5.4
-5.3
-5.2
-5.1
-5
-4.9
-4.8
-4.7
-4.6
-4.5
-4.4
-4.3
-4.2
-4.1
-4
-3.9
-3.8
-3.7
-3.6
-3.5
-3.4
-3.3
-3.2
-3.1
-3
-2.9
-2.8
-2.7
-2.6
-2.5
-2.4
-2.3
-2.2
-2.1
-2
-1.9
-1.8
-1.7
-1.6
-1.5
-1.4
-1.3
-1.2
-1.1
-1
</DataArray>
</CellData>
</Piece>
</RectilinearGrid>
</VTKFile>
