<?xml version="1.0"?>
<VTKFile type="RectilinearGrid">
<RectilinearGrid WholeExtent="0 100 0 0 0 0">
<Piece Extent="0 100 0 0 0 0">
<Coordinates>
<DataArray type="Float32" format="ascii">
0
10
20
30
40
50
60
70
80
90
100
110
120
130
140
150
160
170
180
190
200
210
220
230
240
250
260
270
280
290
300
310
320
330
340
350
360
370
380
390
400
410
420
430
440
450
460
470
480
490
500
510
520
530
540
550
560
570
580
590
600
610
620
630
640
650
660
670
680
690
700
710
720
730
740
750
760
770
780
790
800
810
820
830
840
850
860
870
880
890
900
910
920
930
940
950
960
970
980
990
1000
</DataArray>
<DataArray type="Float32" format="ascii">
0
</DataArray>
<DataArray type="Float32" format="ascii">
0
</DataArray>
</Coordinates>
<CellData>
<DataArray Name="h" type="Float32" format="ascii">
8.40073
8.39581
8.38621
8.37229
8.35451
8.33365
8.31077
8.28723
8.26468
8.24489
8.22967
8.22062
8.21886
8.22479
8.23792
8.25689
8.27966
8.3039
8.32743
8.34854
8.36622
8.38016
8.39055
8.39792
8.40291
8.40614
8.40813
8.40929
8.40989
8.41012
8.41012
8.40995
8.40966
8.40928
8.40882
8.40829
8.4077
8.40705
8.40635
8.40559
8.40479
8.40392
8.40301
8.40205
8.40104
8.39997
8.39885
8.39768
8.39646
8.39517
8.39383
8.39243
8.39096
8.38943
8.38781
8.38612
8.38433
8.38246
8.38047
8.37831
8.37585
8.37281
8.36854
8.36156
8.34853
8.32188
8.2647
8.14027
7.87436
7.34234
6.42801
5.25719
4.29401
3.7916
3.60128
3.54145
3.52661
3.52679
3.53236
3.54015
3.54892
3.55792
3.56657
3.5744
3.58106
3.58637
3.59033
3.59309
3.59486
3.59591
3.59647
3.59674
3.59685
3.59688
3.59687
3.59686
3.59684
3.59683
3.59682
3.59682
</DataArray>
<DataArray Name="hu" type="Float32" format="ascii">
2.94322
8.81148
14.6212
20.3294
25.8942
31.2724
36.4201
41.293
45.8476
50.0428
53.8421
57.2166
60.1482
62.632
64.6791
66.316
67.583
68.5299
69.2108
69.6793
69.9839
70.166
70.2594
70.2902
70.278
70.2374
70.1784
70.1083
70.0316
69.9514
69.8694
69.7868
69.704
69.6213
69.539
69.4571
69.3755
69.2942
69.2132
69.1326
69.0522
68.972
68.8921
68.8123
68.7328
68.6533
68.574
68.4948
68.4157
68.3366
68.2576
68.1785
68.0993
68.0201
67.9407
67.8611
67.7812
67.7006
67.6189
67.5352
67.4473
67.3503
67.2323
67.0662
66.7899
66.2632
65.1756
62.8682
58.0786
48.9788
34.7856
19.1137
8.16253
3.17666
1.41626
0.836665
0.628163
0.527185
0.453164
0.383161
0.312557
0.242738
0.176909
0.118346
0.0694905
0.0315101
0.00424027
-0.0135503
-0.0237372
-0.0283721
-0.0293153
-0.0280324
-0.0255357
-0.0224498
-0.0191085
-0.0156702
-0.0122003
-0.0087194
-0.0052358
-0.0017469
</DataArray>
<DataArray Name="B" type="Float32" format="ascii">
-10.9
-10.8
-10.7
-10.6
-10.5
-10.4
-10.3
-10.2
-10.1
-10
-9.9
-9.8
-9.7
-9.6
-9.5
-9.4
-9.3
-9.2
-9.1
-9
-8.9
-8.8
-8.7
-8.6
-8.5
-8.4
-8.3
-8.2
-8.1
-8
-7.9
-7.8
-7.7
-7.6
-7.5
-7.4
-7.3
-7.2
-7.1
-7
-6.9
-6.8
-6.7
-6.6
-6.5
-6.4
-6.3
-6.2
-6.1
-6
-5.9
-5.8
-5.7
-5.6
-5.5
-5.4
-5.3
-5.2
-5.1
-5
-4.9
-4.8
-4.7
-4.6
-4.5
-4.4
-4.3
-4.2
-4.1
-4
-3.9
-3.8
-3.7
-3.6
-3.5
-3.4
-3.3
-3.2
-3.1
-3
-2.9
-2.8
-2.7
-2.6
-2.5
-2.4
-2.3
-2.2
-2.1
-2
-1.9
-1.8
-1.7
-1.6
-1.5
-1.4
-1.3
-1.2
-1.1
-1
</DataArray>
</CellData>
</Piece>
</RectilinearGrid>
</VTKFile>
