<?xml version="1.0"?>
<VTKFile type="RectilinearGrid">
<RectilinearGrid WholeExtent="0 100 0 0 0 0">
<Piece Extent="0 100 0 0 0 0">
<Coordinates>
<DataArray type="Float32" format="ascii">
0
10
20
30
40
50
60
70
80
90
100
110
120
130
140
150
160
170
180
190
200
210
220
230
240
250
260
270
280
290
300
310
320
330
340
350
360
370
380
390
400
410
420
430
440
450
460
470
480
490
500
510
520
530
540
550
560
570
580
590
600
610
620
630
640
650
660
670
680
690
700
710
720
730
740
750
760
770
780
790
800
810
820
830
840
850
860
870
880
890
900
910
920
930
940
950
960
970
980
990
1000
</DataArray>
<DataArray type="Float32" format="ascii">
0
</DataArray>
<DataArray type="Float32" format="ascii">
0
</DataArray>
</Coordinates>
<CellData>
<DataArray Name="h" type="Float32" format="ascii">
10.7545
10.7542
10.7538
10.7532
10.7525
10.7515
10.7503
10.7489
10.7473
10.7455
10.7434
10.741
10.7383
10.7353
10.732
10.7283
10.7243
10.7198
10.715
10.7097
10.7039
10.6976
10.6908
10.6835
10.6755
10.6669
10.6576
10.6477
10.6369
10.6254
10.6128
10.5992
10.5841
10.5668
10.5461
10.5194
10.4811
10.4204
10.3149
10.1215
9.76549
9.14756
8.221
7.13393
6.19851
5.59433
5.26956
5.10375
5.01274
4.95408
4.90899
4.86955
4.8325
4.7965
4.76102
4.72585
4.69091
4.65615
4.62158
4.58717
4.55291
4.5188
4.48481
4.45094
4.41715
4.38344
4.34978
4.31616
4.28256
4.24897
4.21536
4.18173
4.14807
4.11437
4.08061
4.04681
4.01296
3.97905
3.9451
3.9111
3.87709
3.84308
3.8091
3.7752
3.74145
3.70792
3.67475
3.64206
3.61005
3.57893
3.54898
3.5205
3.4938
3.46926
3.44723
3.42808
3.41214
3.39974
3.39115
3.3867
</DataArray>
<DataArray Name="hu" type="Float32" format="ascii">
0.550476
1.65159
2.75263
3.853
4.9524
6.05054
7.14716
8.24198
9.33466
10.4249
11.5124
12.5968
13.6778
14.755
15.8281
16.8966
17.9602
19.0184
20.0708
21.117
22.1565
23.1887
24.2133
25.2295
26.237
27.2351
28.2231
29.2003
30.166
31.1188
32.0571
32.978
33.876
34.7408
35.5521
36.2684
36.8054
36.9914
36.4836
34.6327
30.3695
22.4761
10.911
-1.59106
-11.1418
-16.4441
-18.7232
-19.4502
-19.4888
-19.24
-18.8741
-18.4615
-18.0309
-17.5938
-17.1549
-16.7161
-16.2781
-15.8412
-15.4057
-14.9716
-14.539
-14.1082
-13.6792
-13.2522
-12.8275
-12.4052
-11.9856
-11.5688
-11.155
-10.7444
-10.3372
-9.93364
-9.53375
-9.13776
-8.74581
-8.35805
-7.97465
-7.59574
-7.22147
-6.85197
-6.48737
-6.12777
-5.77324
-5.42381
-5.07943
-4.73995
-4.40512
-4.07453
-3.74765
-3.42377
-3.10204
-2.78153
-2.46124
-2.1402
-1.81755
-1.49266
-1.16516
-0.835004
-0.502533
-0.167896
</DataArray>
<DataArray Name="B" type="Float32" format="ascii">
-10.9
-10.8
-10.7
-10.6
-10.5
-10.4
-10.3
-10.2
-10.1
-10
-9.9
-9.8
-9.7
-9.6
-9.5
-9.4
-9.3
-9.2
-9.1
-9
-8.9
-8.8
-8.7
-8.6
-8.5
-8.4
-8.3
-8.2
-8.1
-8
-7.9
-7.8
-7.7
-7.6
-7.5
-7.4
-7.3
-7.2
-7.1
-7
-6.9
-6.8
-6.7
-6.6
-6.5
-6.4
-6.3
-6.2
-6.1
-6
-5.9
-5.8
-5.7
-5.6
-5.5
-5.4
-5.3
-5.2
-5.1
-5
-4.9
-4.8
-4.7
-4.6
-4.5
-4.4
-4.3
-4.2
-4.1
-4
-3.9
-3.8
-3.7
-3.6
-3.5
-3.4
-3.3
-3.2
-3.1
-3
-2.9
-2.8
-2.7
-2.6
-2.5
-2.4
-2.3
-2.2
-2.1
-2
-1.9
-1.8
-1.7
-1.6
-1.5
-1.4
-1.3
-1.2
-1.1
-1
</DataArray>
</CellData>
</Piece>
</RectilinearGrid>
</VTKFile>
