<?xml version="1.0"?>
<VTKFile type="RectilinearGrid">
<RectilinearGrid WholeExtent="0 100 0 0 0 0">
<Piece Extent="0 100 0 0 0 0">
<Coordinates>
<DataArray type="Float32" format="ascii">
0
10
20
30
40
50
60
70
80
90
100
110
120
130
140
150
160
170
180
190
200
210
220
230
240
250
260
270
280
290
300
310
320
330
340
350
360
370
380
390
400
410
420
430
440
450
460
470
480
490
500
510
520
530
540
550
560
570
580
590
600
610
620
630
640
650
660
670
680
690
700
710
720
730
740
750
760
770
780
790
800
810
820
830
840
850
860
870
880
890
900
910
920
930
940
950
960
970
980
990
1000
</DataArray>
<DataArray type="Float32" format="ascii">
0
</DataArray>
<DataArray type="Float32" format="ascii">
0
</DataArray>
</Coordinates>
<CellData>
<DataArray Name="h" type="Float32" format="ascii">
14
14
14
14
14
14
14
14
14
14
14
14
14
14
14
14
14
14
14
14
14
14
14
14
14
13.9997
13.9972
13.9806
13.9009
13.6228
12.9087
11.5348
9.59521
7.57622
6.25347
4.67661
3.80526
3.55282
3.50659
3.50061
3.50004
3.5
3.5
3.5
3.5
3.5
3.5
3.5
3.5
3.5
3.5
3.5
3.5
3.5
3.5
3.5
3.5
3.5
3.5
3.5
3.5
3.5
3.5
3.5
3.5
3.5
3.5
3.5
3.5
3.5
3.5
3.5
3.5
3.5
3.5
3.5
3.5
3.5
3.5
3.5
3.5
3.5
3.5
3.5
3.5
3.5
3.5
3.5
3.5
3.5
3.5
3.5
3.5
3.5
3.50001
3.50009
3.50075
3.5048
3.52135
3.56153
</DataArray>
<DataArray Name="hu" type="Float32" format="ascii">
3.9384e-06
-2.23021e-06
-3.96941e-06
4.69158e-06
-5.51324e-07
1.10653e-06
1.00314e-06
6.42955e-06
1.03922e-05
4.02391e-06
5.40183e-06
-1.58738e-05
-1.30654e-05
3.77797e-06
-2.56031e-06
7.268e-06
-8.13358e-06
-1.50268e-05
9.1933e-06
1.32648e-05
5.02387e-06
-1.26341e-05
-7.7172e-06
2.46627e-05
0.000331463
0.00437464
0.0415469
0.286357
1.44925
5.41714
15.0858
31.84
52.2003
58.5243
37.0135
14.6241
4.01211
1.25094
0.76788
0.706206
0.700413
0.700017
0.699998
0.7
0.700004
0.700001
0.699999
0.699999
0.7
0.700002
0.7
0.699998
0.699998
0.7
0.700004
0.700001
0.699999
0.699999
0.7
0.700003
0.700001
0.699998
0.699996
0.7
0.700002
0.700001
0.7
0.7
0.700001
0.700001
0.700001
0.7
0.699999
0.699999
0.7
0.700001
0.700001
0.7
0.7
0.7
0.699999
0.7
0.700001
0.700001
0.7
0.699999
0.699999
0.7
0.7
0.7
0.7
0.7
0.7
0.699997
0.699952
0.699424
0.694968
0.668151
0.559223
0.291551
</DataArray>
<DataArray Name="B" type="Float32" format="ascii">
-10.9
-10.8
-10.7
-10.6
-10.5
-10.4
-10.3
-10.2
-10.1
-10
-9.9
-9.8
-9.7
-9.6
-9.5
-9.4
-9.3
-9.2
-9.1
-9
-8.9
-8.8
-8.7
-8.6
-8.5
-8.4
-8.3
-8.2
-8.1
-8
-7.9
-7.8
-7.7
-7.6
-7.5
-7.4
-7.3
-7.2
-7.1
-7
-6.9
-6.8
-6.7
-6.6
-6.5
-6.4
-6.3
-6.2
-6.1
-6
-5.9
-5.8
-5.7
-5.6
-5.5
-5.4
-5.3
-5.2
-5.1
-5
-4.9
-4.8
-4.7
-4.6
-4.5
-4.4
-4.3
-4.2
-4.1
-4
-3.9
-3.8
-3.7
-3.6
-3.5
-3.4
-3.3
-3.2
-3.1
-3
-2.9
-2.8
-2.7
-2.6
-2.5
-2.4
-2.3
-2.2
-2.1
-2
-1.9
-1.8
-1.7
-1.6
-1.5
-1.4
-1.3
-1.2
-1.1
-1
</DataArray>
</CellData>
</Piece>
</RectilinearGrid>
</VTKFile>
