<?xml version="1.0"?>
<VTKFile type="RectilinearGrid">
<RectilinearGrid WholeExtent="0 100 0 0 0 0">
<Piece Extent="0 100 0 0 0 0">
<Coordinates>
<DataArray type="Float32" format="ascii">
0
10
20
30
40
50
60
70
80
90
100
110
120
130
140
150
160
170
180
190
200
210
220
230
240
250
260
270
280
290
300
310
320
330
340
350
360
370
380
390
400
410
420
430
440
450
460
470
480
490
500
510
520
530
540
550
560
570
580
590
600
610
620
630
640
650
660
670
680
690
700
710
720
730
740
750
760
770
780
790
800
810
820
830
840
850
860
870
880
890
900
910
920
930
940
950
960
970
980
990
1000
</DataArray>
<DataArray type="Float32" format="ascii">
0
</DataArray>
<DataArray type="Float32" format="ascii">
0
</DataArray>
</Coordinates>
<CellData>
<DataArray Name="h" type="Float32" format="ascii">
11.6034
11.6029
11.6019
11.6004
11.5985
11.596
11.593
11.5895
11.5854
11.5807
11.5754
11.5695
11.5629
11.5556
11.5475
11.5387
11.5291
11.5187
11.5073
11.4951
11.4817
11.4672
11.4513
11.4334
11.4125
11.3868
11.3521
11.3004
11.2155
11.0663
10.7967
10.3227
9.56514
8.55551
7.51676
6.71056
6.21245
5.94099
5.79504
5.70949
5.65114
5.60466
5.5633
5.52415
5.48595
5.44822
5.41074
5.37345
5.33632
5.29935
5.26254
5.22589
5.18939
5.15304
5.11683
5.08074
5.04475
5.00886
4.97303
4.93725
4.9015
4.86576
4.83002
4.79425
4.75843
4.72257
4.68664
4.65062
4.61452
4.57831
4.542
4.50557
4.46902
4.43234
4.39553
4.3586
4.32155
4.28439
4.24715
4.20986
4.17258
4.13538
4.09837
4.06167
4.02547
3.98996
3.95538
3.92199
3.89009
3.85996
3.83188
3.80611
3.78287
3.76233
3.74463
3.72981
3.71792
3.70895
3.70285
3.69971
</DataArray>
<DataArray Name="hu" type="Float32" format="ascii">
0.571174
1.71354
2.85537
3.99577
5.13417
6.26997
7.40257
8.53135
9.65571
10.775
11.8886
12.9958
14.096
15.1883
16.2722
17.3468
18.4114
19.4652
20.5072
21.5362
22.5509
23.5487
24.5255
25.4735
26.3772
27.2057
27.8966
28.3245
28.2415
27.1759
24.31
18.5111
8.99918
-3.14374
-14.5727
-22.4296
-26.554
-28.2646
-28.7396
-28.6466
-28.305
-27.8576
-27.3664
-26.8577
-26.3427
-25.826
-25.3094
-24.7936
-24.2786
-23.7648
-23.252
-22.7403
-22.2297
-21.7205
-21.2125
-20.7061
-20.2014
-19.6985
-19.1976
-18.699
-18.2027
-17.7089
-17.2178
-16.7296
-16.2444
-15.7623
-15.2835
-14.808
-14.3359
-13.8674
-13.4025
-12.9412
-12.4838
-12.0302
-11.5804
-11.1346
-10.6926
-10.2545
-9.82019
-9.38945
-8.96201
-8.53744
-8.11516
-7.69438
-7.27413
-6.85324
-6.43035
-6.00399
-5.57263
-5.13474
-4.68895
-4.23413
-3.76946
-3.29452
-2.80933
-2.3144
-1.81068
-1.29953
-0.782718
-0.261573
</DataArray>
<DataArray Name="B" type="Float32" format="ascii">
-10.9
-10.8
-10.7
-10.6
-10.5
-10.4
-10.3
-10.2
-10.1
-10
-9.9
-9.8
-9.7
-9.6
-9.5
-9.4
-9.3
-9.2
-9.1
-9
-8.9
-8.8
-8.7
-8.6
-8.5
-8.4
-8.3
-8.2
-8.1
-8
-7.9
-7.8
-7.7
-7.6
-7.5
-7.4
-7.3
-7.2
-7.1
-7
-6.9
-6.8
-6.7
-6.6
-6.5
-6.4
-6.3
-6.2
-6.1
-6
-5.9
-5.8
-5.7
-5.6
-5.5
-5.4
-5.3
-5.2
-5.1
-5
-4.9
-4.8
-4.7
-4.6
-4.5
-4.4
-4.3
-4.2
-4.1
-4
-3.9
-3.8
-3.7
-3.6
-3.5
-3.4
-3.3
-3.2
-3.1
-3
-2.9
-2.8
-2.7
-2.6
-2.5
-2.4
-2.3
-2.2
-2.1
-2
-1.9
-1.8
-1.7
-1.6
-1.5
-1.4
-1.3
-1.2
-1.1
-1
</DataArray>
</CellData>
</Piece>
</RectilinearGrid>
</VTKFile>
