<?xml version="1.0"?>
<VTKFile type="RectilinearGrid">
<RectilinearGrid WholeExtent="0 100 0 0 0 0">
<Piece Extent="0 100 0 0 0 0">
<Coordinates>
<DataArray type="Float32" format="ascii">
0
10
20
30
40
50
60
70
80
90
100
110
120
130
140
150
160
170
180
190
200
210
220
230
240
250
260
270
280
290
300
310
320
330
340
350
360
370
380
390
400
410
420
430
440
450
460
470
480
490
500
510
520
530
540
550
560
570
580
590
600
610
620
630
640
650
660
670
680
690
700
710
720
730
740
750
760
770
780
790
800
810
820
830
840
850
860
870
880
890
900
910
920
930
940
950
960
970
980
990
1000
</DataArray>
<DataArray type="Float32" format="ascii">
0
</DataArray>
<DataArray type="Float32" format="ascii">
0
</DataArray>
</Coordinates>
<CellData>
<DataArray Name="h" type="Float32" format="ascii">
3.55976
3.55971
3.55963
3.5595
3.55933
3.55911
3.55885
3.55854
3.55818
3.55777
3.55731
3.5568
3.55623
3.55562
3.55498
3.55431
3.55366
3.55307
3.55261
3.55237
3.55251
3.55321
3.55472
3.55734
3.56145
3.56747
3.5759
3.58724
3.60202
3.62075
3.64391
3.67189
3.70502
3.74351
3.78749
3.83696
3.89185
3.95199
4.01716
4.08707
4.16139
4.2398
4.32191
4.40736
4.49579
4.58681
4.68006
4.7752
4.87186
4.96973
5.06849
5.16785
5.26754
5.36731
5.46695
5.56626
5.66508
5.76328
5.86073
5.95734
6.05303
6.14773
6.24138
6.33394
6.42535
6.51555
6.60451
6.69218
6.77853
6.8636
6.94765
7.03159
7.11833
7.21683
7.35392
7.60483
8.14457
9.21434
10.7885
12.3613
13.4813
14.1305
14.486
14.6939
14.8334
14.9411
15.0328
15.1149
15.19
15.2589
15.3218
15.3787
15.4295
15.4741
15.5125
15.5445
15.5702
15.5895
15.6024
15.6088
</DataArray>
<DataArray Name="hu" type="Float32" format="ascii">
0.00808223
0.0242531
0.0404065
0.0565116
0.0725606
0.0885397
0.104427
0.120198
0.13584
0.151342
0.166684
0.181867
0.196924
0.211905
0.226918
0.242161
0.257956
0.274817
0.293493
0.315067
0.341041
0.373415
0.414776
0.468332
0.537914
0.627933
0.743267
0.889097
1.07064
1.29293
1.56053
1.87729
2.2462
2.66923
3.14734
3.68048
4.26774
4.90746
5.59738
6.33488
7.11706
7.94095
8.80359
9.70216
10.634
11.5968
12.5883
13.6066
14.6502
15.7174
16.807
17.9177
19.0484
20.1979
21.365
22.5485
23.7471
24.9595
26.1842
27.4197
28.6645
29.9171
31.1759
32.4394
33.7061
34.9745
36.2431
37.5103
38.7746
40.0338
41.2843
42.5182
43.7146
44.8137
45.6392
45.6739
43.5284
36.5507
23.3306
8.04796
-3.3015
-9.21809
-11.4041
-11.6787
-11.1096
-10.2092
-9.20385
-8.19109
-7.21265
-6.28677
-5.42157
-4.62046
-3.88416
-3.21137
-2.59895
-2.04193
-1.53352
-1.06515
-0.626746
-0.206842
</DataArray>
<DataArray Name="B" type="Float32" format="ascii">
-10.9
-10.8
-10.7
-10.6
-10.5
-10.4
-10.3
-10.2
-10.1
-10
-9.9
-9.8
-9.7
-9.6
-9.5
-9.4
-9.3
-9.2
-9.1
-9
-8.9
-8.8
-8.7
-8.6
-8.5
-8.4
-8.3
-8.2
-8.1
-8
-7.9
-7.8
-7.7
-7.6
-7.5
-7.4
-7.3
-7.2
-7.1
-7
-6.9
-6.8
-6.7
-6.6
-6.5
-6.4
-6.3
-6.2
-6.1
-6
-5.9
-5.8
-5.7
-5.6
-5.5
-5.4
-5.3
-5.2
-5.1
-5
-4.9
-4.8
-4.7
-4.6
-4.5
-4.4
-4.3
-4.2
-4.1
-4
-3.9
-3.8
-3.7
-3.6
-3.5
-3.4
-3.3
-3.2
-3.1
-3
-2.9
-2.8
-2.7
-2.6
-2.5
-2.4
-2.3
-2.2
-2.1
-2
-1.9
-1.8
-1.7
-1.6
-1.5
-1.4
-1.3
-1.2
-1.1
-1
</DataArray>
</CellData>
</Piece>
</RectilinearGrid>
</VTKFile>
