<?xml version="1.0"?>
<VTKFile type="RectilinearGrid">
<RectilinearGrid WholeExtent="0 100 0 0 0 0">
<Piece Extent="0 100 0 0 0 0">
<Coordinates>
<DataArray type="Float32" format="ascii">
0
10
20
30
40
50
60
70
80
90
100
110
120
130
140
150
160
170
180
190
200
210
220
230
240
250
260
270
280
290
300
310
320
330
340
350
360
370
380
390
400
410
420
430
440
450
460
470
480
490
500
510
520
530
540
550
560
570
580
590
600
610
620
630
640
650
660
670
680
690
700
710
720
730
740
750
760
770
780
790
800
810
820
830
840
850
860
870
880
890
900
910
920
930
940
950
960
970
980
990
1000
</DataArray>
<DataArray type="Float32" format="ascii">
0
</DataArray>
<DataArray type="Float32" format="ascii">
0
</DataArray>
</Coordinates>
<CellData>
<DataArray Name="h" type="Float32" format="ascii">
4.73659
4.73677
4.73715
4.73777
4.7386
4.73966
4.74096
4.74248
4.74423
4.74622
4.74844
4.75091
4.75361
4.75657
4.75977
4.76323
4.76694
4.77092
4.77516
4.77968
4.78448
4.78955
4.79492
4.80059
4.80656
4.81284
4.81945
4.82638
4.83364
4.84126
4.84923
4.85756
4.86627
4.87537
4.88486
4.89476
4.90508
4.91582
4.92699
4.93862
4.95069
4.96322
4.97623
4.9897
5.00364
5.01807
5.03297
5.04835
5.0642
5.08051
5.09728
5.11451
5.13218
5.15034
5.16906
5.18863
5.20984
5.23494
5.27013
5.33229
5.465
5.76645
6.39011
7.39776
8.54194
9.44653
9.9864
10.2601
10.3905
10.4536
10.4865
10.5063
10.5201
10.5312
10.5411
10.5503
10.5591
10.5676
10.5758
10.5838
10.5916
10.5991
10.6064
10.6134
10.6201
10.6266
10.6327
10.6385
10.644
10.6492
10.6539
10.6583
10.6622
10.6658
10.6688
10.6714
10.6735
10.6751
10.6761
10.6766
</DataArray>
<DataArray Name="hu" type="Float32" format="ascii">
0.217789
0.65352
1.08937
1.52511
1.9607
2.39612
2.83131
3.26622
3.70081
4.13502
4.56881
5.00212
5.4349
5.86708
6.29861
6.72943
7.15947
7.58868
8.01697
8.44429
8.87055
9.29567
9.71959
10.1422
10.5635
10.9833
11.4015
11.8181
12.233
12.646
13.0571
13.4662
13.8732
14.278
14.6804
15.0805
15.4781
15.8731
16.2655
16.6551
17.042
17.4261
17.8074
18.1858
18.5613
18.9339
19.3037
19.6707
20.0349
20.3964
20.7554
21.1118
21.4656
21.8168
22.1645
22.5066
22.8367
23.1371
23.3591
23.3701
22.8179
20.8448
15.8267
6.38496
-5.73016
-16.0783
-22.2975
-25.0938
-25.9393
-25.8447
-25.327
-24.6229
-23.8363
-23.0124
-22.1712
-21.3212
-20.4663
-19.6083
-18.7481
-17.886
-17.0224
-16.1574
-15.291
-14.4234
-13.5546
-12.6848
-11.8139
-10.9422
-10.0696
-9.19636
-8.32241
-7.4479
-6.57289
-5.69745
-4.82164
-3.94553
-3.06917
-2.19264
-1.31599
-0.438825
</DataArray>
<DataArray Name="B" type="Float32" format="ascii">
-10.9
-10.8
-10.7
-10.6
-10.5
-10.4
-10.3
-10.2
-10.1
-10
-9.9
-9.8
-9.7
-9.6
-9.5
-9.4
-9.3
-9.2
-9.1
-9
-8.9
-8.8
-8.7
-8.6
-8.5
-8.4
-8.3
-8.2
-8.1
-8
-7.9
-7.8
-7.7
-7.6
-7.5
-7.4
-7.3
-7.2
-7.1
-7
-6.9
-6.8
-6.7
-6.6
-6.5
-6.4
-6.3
-6.2
-6.1
-6
-5.9
-5.8
-5.7
-5.6
-5.5
-5.4
-5.3
-5.2
-5.1
-5
-4.9
-4.8
-4.7
-4.6
-4.5
-4.4
-4.3
-4.2
-4.1
-4
-3.9
-3.8
-3.7
-3.6
-3.5
-3.4
-3.3
-3.2
-3.1
-3
-2.9
-2.8
-2.7
-2.6
-2.5
-2.4
-2.3
-2.2
-2.1
-2
-1.9
-1.8
-1.7
-1.6
-1.5
-1.4
-1.3
-1.2
-1.1
-1
</DataArray>
</CellData>
</Piece>
</RectilinearGrid>
</VTKFile>
