<?xml version="1.0"?>
<VTKFile type="RectilinearGrid">
<RectilinearGrid WholeExtent="0 100 0 0 0 0">
<Piece Extent="0 100 0 0 0 0">
<Coordinates>
<DataArray type="Float32" format="ascii">
0
10
20
30
40
50
60
70
80
90
100
110
120
130
140
150
160
170
180
190
200
210
220
230
240
250
260
270
280
290
300
310
320
330
340
350
360
370
380
390
400
410
420
430
440
450
460
470
480
490
500
510
520
530
540
550
560
570
580
590
600
610
620
630
640
650
660
670
680
690
700
710
720
730
740
750
760
770
780
790
800
810
820
830
840
850
860
870
880
890
900
910
920
930
940
950
960
970
980
990
1000
</DataArray>
<DataArray type="Float32" format="ascii">
0
</DataArray>
<DataArray type="Float32" format="ascii">
0
</DataArray>
</Coordinates>
<CellData>
<DataArray Name="h" type="Float32" format="ascii">
14
14
14
13.9999
13.9996
13.9988
13.9967
13.9918
13.981
13.9595
13.9199
13.8525
13.7463
13.5908
13.3778
13.1032
12.7674
12.3751
11.9352
11.4592
10.9618
10.46
9.97335
9.52369
9.13323
8.82085
8.59656
8.4567
8.38416
8.35492
8.34734
8.34759
8.34947
8.35112
8.35229
8.35304
8.35343
8.35346
8.35306
8.35195
8.34914
8.34174
8.32206
8.27201
8.15371
7.89843
7.40908
6.61685
5.61202
4.67964
4.05207
3.72628
3.58438
3.5292
3.50944
3.50285
3.5008
3.50021
3.50005
3.50001
3.5
3.5
3.5
3.5
3.5
3.5
3.5
3.5
3.5
3.5
3.5
3.5
3.5
3.5
3.5
3.5
3.5
3.5
3.5
3.5
3.50002
3.50005
3.50014
3.50037
3.50088
3.50194
3.50397
3.5075
3.51309
3.52104
3.5312
3.54272
3.55422
3.5642
3.57163
3.57628
3.57866
3.57963
3.57991
3.57997
</DataArray>
<DataArray Name="hu" type="Float32" format="ascii">
3.21276e-05
0.000163483
0.000633103
0.00221018
0.00696
0.0202195
0.0542809
0.13469
0.309266
0.657784
1.298
2.38156
4.07534
6.53025
9.84661
14.0489
19.0783
24.8018
31.0318
37.5472
44.1105
50.479
56.4126
61.683
66.091
69.4967
71.8611
73.2771
73.9588
74.1746
74.1586
74.0578
73.9382
73.8191
73.7029
73.5884
73.4744
73.3597
73.2418
73.1148
72.9599
72.723
72.2632
71.2521
69.0142
64.375
55.85
42.8669
27.7343
14.9683
7.08743
3.24653
1.6352
1.02084
0.803127
0.731013
0.708701
0.702267
0.700546
0.700125
0.700025
0.700002
0.700002
0.700005
0.700006
0.699997
0.699991
0.699996
0.700003
0.700005
0.699996
0.699994
0.699995
0.7
0.700007
0.700004
0.699999
0.699996
0.699986
0.699951
0.699837
0.699511
0.698655
0.696561
0.69183
0.682018
0.663394
0.631158
0.580526
0.508767
0.417662
0.314937
0.213149
0.125646
0.0614952
0.0224259
0.0036134
-0.00259572
-0.00285335
-0.00108338
</DataArray>
<DataArray Name="B" type="Float32" format="ascii">
-13.9
-13.8
-13.7
-13.6
-13.5
-13.4
-13.3
-13.2
-13.1
-13
-12.9
-12.8
-12.7
-12.6
-12.5
-12.4
-12.3
-12.2
-12.1
-12
-11.9
-11.8
-11.7
-11.6
-11.5
-11.4
-11.3
-11.2
-11.1
-11
-10.9
-10.8
-10.7
-10.6
-10.5
-10.4
-10.3
-10.2
-10.1
-10
-9.9
-9.8
-9.7
-9.6
-9.5
-9.4
-9.3
-9.2
-9.1
-9
-8.9
-8.8
-8.7
-8.6
-8.5
-8.4
-8.3
-8.2
-8.1
-8
-7.9
-7.8
-7.7
-7.6
-7.5
-7.4
-7.3
-7.2
-7.1
-7
-6.9
-6.8
-6.7
-6.6
-6.5
-6.4
-6.3
-6.2
-6.1
-6
-5.9
-5.8
-5.7
-5.6
-5.5
-5.4
-5.3
-5.2
-5.1
-5
-4.9
-4.8
-4.7
-4.6
-4.5
-4.4
-4.3
-4.2
-4.1
-4
</DataArray>
</CellData>
</Piece>
</RectilinearGrid>
</VTKFile>
