<?xml version="1.0"?>
<VTKFile type="RectilinearGrid">
<RectilinearGrid WholeExtent="0 100 0 0 0 0">
<Piece Extent="0 100 0 0 0 0">
<Coordinates>
<DataArray type="Float32" format="ascii">
0
10
20
30
40
50
60
70
80
90
100
110
120
130
140
150
160
170
180
190
200
210
220
230
240
250
260
270
280
290
300
310
320
330
340
350
360
370
380
390
400
410
420
430
440
450
460
470
480
490
500
510
520
530
540
550
560
570
580
590
600
610
620
630
640
650
660
670
680
690
700
710
720
730
740
750
760
770
780
790
800
810
820
830
840
850
860
870
880
890
900
910
920
930
940
950
960
970
980
990
1000
</DataArray>
<DataArray type="Float32" format="ascii">
0
</DataArray>
<DataArray type="Float32" format="ascii">
0
</DataArray>
</Coordinates>
<CellData>
<DataArray Name="h" type="Float32" format="ascii">
4.29479
4.31925
4.36779
4.43935
4.53219
4.64412
4.77261
4.91502
5.06872
5.23123
5.40034
5.5741
5.75086
5.9292
6.10791
6.28593
6.4623
6.63611
6.80649
6.9726
7.13359
7.28862
7.43685
7.57747
7.7097
7.83279
7.9461
8.0491
8.14141
8.22284
8.29343
8.35344
8.40341
8.44406
8.47633
8.50129
8.52007
8.53379
8.54351
8.55017
8.55457
8.55736
8.55904
8.55998
8.56043
8.56059
8.56055
8.5604
8.56018
8.55992
8.55963
8.55933
8.55902
8.55872
8.55844
8.5582
8.55804
8.558
8.55815
8.55858
8.55938
8.56067
8.56257
8.5652
8.56865
8.57296
8.5781
8.58399
8.59043
8.59715
8.60379
8.6099
8.61488
8.61783
8.61713
8.60954
8.5882
8.53852
8.43022
8.20418
7.76148
6.99362
5.9259
4.86661
4.15237
3.80121
3.65818
3.60477
3.5855
3.57862
3.57619
3.57532
3.57502
3.57491
3.57487
3.57485
3.57484
3.57483
3.57483
3.57483
</DataArray>
<DataArray Name="hu" type="Float32" format="ascii">
1.12695
3.38375
5.64759
7.92252
10.2149
12.5323
14.883
17.2751
19.7151
22.2069
24.7517
27.3474
29.9886
32.6677
35.3745
38.0975
40.8238
43.5396
46.2302
48.8802
51.4736
53.9937
56.4236
58.746
60.9441
63.0015
64.9033
66.6364
68.1909
69.5602
70.742
71.7391
72.5586
73.2128
73.7172
74.0906
74.3529
74.5243
74.6239
74.6686
74.6729
74.6485
74.6044
74.5473
74.4818
74.4112
74.3375
74.2621
74.1856
74.1086
74.0312
73.9537
73.8759
73.7979
73.7195
73.6405
73.5606
73.4793
73.3961
73.3103
73.2208
73.1268
73.0271
72.9208
72.807
72.6853
72.5561
72.4198
72.2779
72.1319
71.9833
71.8321
71.6753
71.5023
71.2875
70.9727
70.4322
69.399
67.3293
63.2063
55.4935
43.0184
27.4313
13.8557
5.76998
2.15074
0.757056
0.25228
0.0740731
0.0125181
-0.00775783
-0.0134868
-0.0141197
-0.0129769
-0.011219
-0.00925655
-0.00722147
-0.00516325
-0.00309944
-0.00103319
</DataArray>
<DataArray Name="B" type="Float32" format="ascii">
-13.9
-13.8
-13.7
-13.6
-13.5
-13.4
-13.3
-13.2
-13.1
-13
-12.9
-12.8
-12.7
-12.6
-12.5
-12.4
-12.3
-12.2
-12.1
-12
-11.9
-11.8
-11.7
-11.6
-11.5
-11.4
-11.3
-11.2
-11.1
-11
-10.9
-10.8
-10.7
-10.6
-10.5
-10.4
-10.3
-10.2
-10.1
-10
-9.9
-9.8
-9.7
-9.6
-9.5
-9.4
-9.3
-9.2
-9.1
-9
-8.9
-8.8
-8.7
-8.6
-8.5
-8.4
-8.3
-8.2
-8.1
-8
-7.9
-7.8
-7.7
-7.6
-7.5
-7.4
-7.3
-7.2
-7.1
-7
-6.9
-6.8
-6.7
-6.6
-6.5
-6.4
-6.3
-6.2
-6.1
-6
-5.9
-5.8
-5.7
-5.6
-5.5
-5.4
-5.3
-5.2
-5.1
-5
-4.9
-4.8
-4.7
-4.6
-4.5
-4.4
-4.3
-4.2
-4.1
-4
</DataArray>
</CellData>
</Piece>
</RectilinearGrid>
</VTKFile>
