<?xml version="1.0"?>
<VTKFile type="RectilinearGrid">
<RectilinearGrid WholeExtent="0 100 0 0 0 0">
<Piece Extent="0 100 0 0 0 0">
<Coordinates>
<DataArray type="Float32" format="ascii">
0
10
20
30
40
50
60
70
80
90
100
110
120
130
140
150
160
170
180
190
200
210
220
230
240
250
260
270
280
290
300
310
320
330
340
350
360
370
380
390
400
410
420
430
440
450
460
470
480
490
500
510
520
530
540
550
560
570
580
590
600
610
620
630
640
650
660
670
680
690
700
710
720
730
740
750
760
770
780
790
800
810
820
830
840
850
860
870
880
890
900
910
920
930
940
950
960
970
980
990
1000
</DataArray>
<DataArray type="Float32" format="ascii">
0
</DataArray>
<DataArray type="Float32" format="ascii">
0
</DataArray>
</Coordinates>
<CellData>
<DataArray Name="h" type="Float32" format="ascii">
4.09936
4.10008
4.10157
4.10383
4.10687
4.1107
4.11532
4.12075
4.12698
4.13402
4.14187
4.15054
4.16004
4.17035
4.18149
4.19345
4.20622
4.21982
4.23422
4.24943
4.26543
4.28221
4.29976
4.31807
4.33711
4.35687
4.37733
4.39847
4.42025
4.44267
4.46568
4.48927
4.51341
4.53807
4.56322
4.58884
4.6149
4.64138
4.66825
4.69549
4.72307
4.75099
4.77922
4.80774
4.83654
4.86562
4.89498
4.92463
4.95463
4.98512
5.01643
5.04936
5.08572
5.12968
5.19077
5.29008
5.47138
5.81271
6.41045
7.28833
8.28924
9.15676
9.75234
10.1023
10.2926
10.3948
10.4516
10.4858
10.5087
10.526
10.5404
10.5531
10.5649
10.5762
10.5869
10.5973
10.6074
10.6171
10.6266
10.6357
10.6445
10.653
10.6611
10.6689
10.6763
10.6834
10.6901
10.6964
10.7024
10.7079
10.7129
10.7176
10.7217
10.7254
10.7286
10.7313
10.7335
10.7351
10.7362
10.7367
</DataArray>
<DataArray Name="hu" type="Float32" format="ascii">
0.216748
0.650289
1.08367
1.51648
1.94851
2.37954
2.80933
3.23767
3.66436
4.08919
4.51199
4.93258
5.35081
5.76654
6.17964
6.59003
6.99762
7.40238
7.80428
8.20332
8.59951
8.99294
9.38365
9.77176
10.1574
10.5407
10.9219
11.3012
11.6787
12.0546
12.4293
12.803
13.1759
13.5482
13.9202
14.2921
14.6642
15.0366
15.4096
15.7833
16.1578
16.5335
16.9103
17.2883
17.6676
18.0483
18.4302
18.813
19.1962
19.5782
19.9556
20.3203
20.6541
20.9149
21.0075
20.7184
19.5921
16.7568
10.9469
1.39135
-10.5163
-21.4468
-29.0082
-33.122
-34.858
-35.2404
-34.9188
-34.2441
-33.3935
-32.4542
-31.4692
-30.4593
-29.4351
-28.4019
-27.3622
-26.3176
-25.2689
-24.2165
-23.1609
-22.1022
-21.0407
-19.9766
-18.91
-17.8411
-16.77
-15.697
-14.6221
-13.5456
-12.4675
-11.388
-10.3072
-9.22529
-8.14233
-7.05848
-5.97388
-4.88866
-3.80296
-2.7169
-1.6306
-0.5437
</DataArray>
<DataArray Name="B" type="Float32" format="ascii">
-13.9
-13.8
-13.7
-13.6
-13.5
-13.4
-13.3
-13.2
-13.1
-13
-12.9
-12.8
-12.7
-12.6
-12.5
-12.4
-12.3
-12.2
-12.1
-12
-11.9
-11.8
-11.7
-11.6
-11.5
-11.4
-11.3
-11.2
-11.1
-11
-10.9
-10.8
-10.7
-10.6
-10.5
-10.4
-10.3
-10.2
-10.1
-10
-9.9
-9.8
-9.7
-9.6
-9.5
-9.4
-9.3
-9.2
-9.1
-9
-8.9
-8.8
-8.7
-8.6
-8.5
-8.4
-8.3
-8.2
-8.1
-8
-7.9
-7.8
-7.7
-7.6
-7.5
-7.4
-7.3
-7.2
-7.1
-7
-6.9
-6.8
-6.7
-6.6
-6.5
-6.4
-6.3
-6.2
-6.1
-6
-5.9
-5.8
-5.7
-5.6
-5.5
-5.4
-5.3
-5.2
-5.1
-5
-4.9
-4.8
-4.7
-4.6
-4.5
-4.4
-4.3
-4.2
-4.1
-4
</DataArray>
</CellData>
</Piece>
</RectilinearGrid>
</VTKFile>
