<?xml version="1.0"?>
<VTKFile type="RectilinearGrid">
<RectilinearGrid WholeExtent="0 100 0 0 0 0">
<Piece Extent="0 100 0 0 0 0">
<Coordinates>
<DataArray type="Float32" format="ascii">
0
10
20
30
40
50
60
70
80
90
100
110
120
130
140
150
160
170
180
190
200
210
220
230
240
250
260
270
280
290
300
310
320
330
340
350
360
370
380
390
400
410
420
430
440
450
460
470
480
490
500
510
520
530
540
550
560
570
580
590
600
610
620
630
640
650
660
670
680
690
700
710
720
730
740
750
760
770
780
790
800
810
820
830
840
850
860
870
880
890
900
910
920
930
940
950
960
970
980
990
1000
</DataArray>
<DataArray type="Float32" format="ascii">
0
</DataArray>
<DataArray type="Float32" format="ascii">
0
</DataArray>
</Coordinates>
<CellData>
<DataArray Name="h" type="Float32" format="ascii">
4.78542
4.78585
4.78673
4.78809
4.78993
4.79226
4.79508
4.7984
4.80223
4.80658
4.81145
4.81686
4.82282
4.82934
4.83644
4.84412
4.8524
4.86129
4.87082
4.88099
4.89182
4.90333
4.91554
4.92845
4.94209
4.95647
4.9716
4.9875
5.00417
5.02163
5.03988
5.05892
5.07877
5.09941
5.12085
5.14308
5.16608
5.18986
5.21438
5.23962
5.26558
5.29221
5.31949
5.34739
5.37588
5.40491
5.43446
5.46449
5.49497
5.52585
5.55711
5.58871
5.62062
5.65281
5.68525
5.71793
5.7508
5.78387
5.8171
5.8505
5.88404
5.91771
5.95153
5.98549
6.01962
6.054
6.08885
6.12469
6.16286
6.20667
6.26428
6.35527
6.52408
6.85874
7.48433
8.45738
9.60574
10.6093
11.2901
11.6807
11.8869
11.9939
12.0513
12.0846
12.1063
12.1221
12.1348
12.1457
12.1554
12.1642
12.1721
12.1792
12.1856
12.1912
12.1961
12.2001
12.2034
12.2058
12.2074
12.2082
</DataArray>
<DataArray Name="hu" type="Float32" format="ascii">
0.308652
0.926083
1.54345
2.16035
2.77659
3.39198
4.00632
4.6194
5.231
5.84094
6.44899
7.05491
7.65852
8.25959
8.8579
9.45322
10.0453
10.634
11.219
11.8001
12.3771
12.9498
13.518
14.0815
14.6402
15.1938
15.7422
16.2852
16.8229
17.355
17.8816
18.4026
18.918
19.4278
19.9321
20.4311
20.9249
21.4136
21.8974
22.3767
22.8516
23.3225
23.7897
24.2536
24.7144
25.1725
25.6283
26.0822
26.5345
26.9856
27.4357
27.8851
28.3342
28.7831
29.2321
29.6813
30.131
30.5812
31.032
31.4835
31.9357
32.3886
32.8422
33.2962
33.7504
34.204
34.6549
35.0984
35.5228
35.899
36.1559
36.1218
35.3956
33.1229
27.8676
18.4286
5.98589
-5.6915
-13.7177
-17.9568
-19.6297
-19.8812
-19.4168
-18.6059
-17.6293
-16.5729
-15.4772
-14.3609
-13.233
-12.0979
-10.9576
-9.81342
-8.66598
-7.51585
-6.36346
-5.20917
-4.05336
-2.89636
-1.73849
-0.579697
</DataArray>
<DataArray Name="B" type="Float32" format="ascii">
-13.9
-13.8
-13.7
-13.6
-13.5
-13.4
-13.3
-13.2
-13.1
-13
-12.9
-12.8
-12.7
-12.6
-12.5
-12.4
-12.3
-12.2
-12.1
-12
-11.9
-11.8
-11.7
-11.6
-11.5
-11.4
-11.3
-11.2
-11.1
-11
-10.9
-10.8
-10.7
-10.6
-10.5
-10.4
-10.3
-10.2
-10.1
-10
-9.9
-9.8
-9.7
-9.6
-9.5
-9.4
-9.3
-9.2
-9.1
-9
-8.9
-8.8
-8.7
-8.6
-8.5
-8.4
-8.3
-8.2
-8.1
-8
-7.9
-7.8
-7.7
-7.6
-7.5
-7.4
-7.3
-7.2
-7.1
-7
-6.9
-6.8
-6.7
-6.6
-6.5
-6.4
-6.3
-6.2
-6.1
-6
-5.9
-5.8
-5.7
-5.6
-5.5
-5.4
-5.3
-5.2
-5.1
-5
-4.9
-4.8
-4.7
-4.6
-4.5
-4.4
-4.3
-4.2
-4.1
-4
</DataArray>
</CellData>
</Piece>
</RectilinearGrid>
</VTKFile>
