<?xml version="1.0"?>
<VTKFile type="RectilinearGrid">
<RectilinearGrid WholeExtent="0 100 0 0 0 0">
<Piece Extent="0 100 0 0 0 0">
<Coordinates>
<DataArray type="Float32" format="ascii">
0
10
20
30
40
50
60
70
80
90
100
110
120
130
140
150
160
170
180
190
200
210
220
230
240
250
260
270
280
290
300
310
320
330
340
350
360
370
380
390
400
410
420
430
440
450
460
470
480
490
500
510
520
530
540
550
560
570
580
590
600
610
620
630
640
650
660
670
680
690
700
710
720
730
740
750
760
770
780
790
800
810
820
830
840
850
860
870
880
890
900
910
920
930
940
950
960
970
980
990
1000
</DataArray>
<DataArray type="Float32" format="ascii">
0
</DataArray>
<DataArray type="Float32" format="ascii">
0
</DataArray>
</Coordinates>
<CellData>
<DataArray Name="h" type="Float32" format="ascii">
4.29447
4.29509
4.29637
4.29832
4.30096
4.30428
4.3083
4.31303
4.31846
4.32462
4.3315
4.33913
4.3475
4.35662
4.3665
4.37716
4.38859
4.4008
4.4138
4.42759
4.44217
4.45755
4.47371
4.49066
4.50839
4.5269
4.54617
4.56618
4.58694
4.60842
4.6306
4.65345
4.67696
4.7011
4.72585
4.75117
4.77704
4.80344
4.83032
4.85766
4.88544
4.91362
4.94218
4.9711
5.00034
5.0299
5.05974
5.08986
5.12023
5.15084
5.18168
5.21276
5.24407
5.27565
5.30759
5.34011
5.37375
5.40977
5.45116
5.50489
5.58694
5.7323
6.00939
6.52095
7.33861
8.36813
9.34604
10.0636
10.5007
10.7412
10.8691
10.9387
10.9793
11.0054
11.0243
11.0395
11.0528
11.0649
11.0762
11.0869
11.0971
11.1069
11.1162
11.1251
11.1336
11.1416
11.1492
11.1563
11.1629
11.1691
11.1748
11.18
11.1846
11.1887
11.1923
11.1953
11.1977
11.1995
11.2006
11.2012
</DataArray>
<DataArray Name="hu" type="Float32" format="ascii">
0.248565
0.745767
1.24279
1.73923
2.23483
2.72935
3.22256
3.7142
4.20403
4.69187
5.17746
5.66057
6.14099
6.61852
7.09299
7.5642
8.03201
8.49628
8.95686
9.4137
9.86671
10.3158
10.761
11.2023
11.6397
12.0733
12.5031
12.9294
13.3522
13.7717
14.1881
14.6016
15.0125
15.421
15.8274
16.2319
16.6349
17.0366
17.4374
17.8374
18.237
18.6364
19.0358
19.4355
19.8357
20.2365
20.6381
21.0406
21.4441
21.8487
22.2544
22.6612
23.069
23.4773
23.8852
24.2905
24.6878
25.065
25.3932
25.6055
25.5478
24.8758
22.8782
18.3468
10.0698
-1.49211
-13.315
-22.2406
-27.4392
-29.8119
-30.5084
-30.3207
-29.6901
-28.8407
-27.8829
-26.8701
-25.8283
-24.7703
-23.7023
-22.6276
-21.5476
-20.4634
-19.3756
-18.2845
-17.1904
-16.0936
-14.9942
-13.8924
-12.7885
-11.6827
-10.5752
-9.46613
-8.35571
-7.2441
-6.13147
-5.01798
-3.90378
-2.78905
-1.67394
-0.558157
</DataArray>
<DataArray Name="B" type="Float32" format="ascii">
-13.9
-13.8
-13.7
-13.6
-13.5
-13.4
-13.3
-13.2
-13.1
-13
-12.9
-12.8
-12.7
-12.6
-12.5
-12.4
-12.3
-12.2
-12.1
-12
-11.9
-11.8
-11.7
-11.6
-11.5
-11.4
-11.3
-11.2
-11.1
-11
-10.9
-10.8
-10.7
-10.6
-10.5
-10.4
-10.3
-10.2
-10.1
-10
-9.9
-9.8
-9.7
-9.6
-9.5
-9.4
-9.3
-9.2
-9.1
-9
-8.9
-8.8
-8.7
-8.6
-8.5
-8.4
-8.3
-8.2
-8.1
-8
-7.9
-7.8
-7.7
-7.6
-7.5
-7.4
-7.3
-7.2
-7.1
-7
-6.9
-6.8
-6.7
-6.6
-6.5
-6.4
-6.3
-6.2
-6.1
-6
-5.9
-5.8
-5.7
-5.6
-5.5
-5.4
-5.3
-5.2
-5.1
-5
-4.9
-4.8
-4.7
-4.6
-4.5
-4.4
-4.3
-4.2
-4.1
-4
</DataArray>
</CellData>
</Piece>
</RectilinearGrid>
</VTKFile>
