<?xml version="1.0"?>
<VTKFile type="RectilinearGrid">
<RectilinearGrid WholeExtent="0 100 0 0 0 0">
<Piece Extent="0 100 0 0 0 0">
<Coordinates>
<DataArray type="Float32" format="ascii">
0
10
20
30
40
50
60
70
80
90
100
110
120
130
140
150
160
170
180
190
200
210
220
230
240
250
260
270
280
290
300
310
320
330
340
350
360
370
380
390
400
410
420
430
440
450
460
470
480
490
500
510
520
530
540
550
560
570
580
590
600
610
620
630
640
650
660
670
680
690
700
710
720
730
740
750
760
770
780
790
800
810
820
830
840
850
860
870
880
890
900
910
920
930
940
950
960
970
980
990
1000
</DataArray>
<DataArray type="Float32" format="ascii">
0
</DataArray>
<DataArray type="Float32" format="ascii">
0
</DataArray>
</Coordinates>
<CellData>
<DataArray Name="h" type="Float32" format="ascii">
7.50395
7.50403
7.50422
7.50454
7.50499
7.50556
7.50626
7.50707
7.508
7.50905
7.5102
7.51146
7.51282
7.51428
7.51584
7.51749
7.51924
7.52107
7.52299
7.52498
7.52706
7.52922
7.53146
7.53377
7.53615
7.5386
7.54113
7.54372
7.54639
7.54913
7.55194
7.55483
7.5578
7.56084
7.56397
7.56719
7.57051
7.57393
7.57747
7.58112
7.58491
7.58885
7.59295
7.59723
7.60171
7.60641
7.61135
7.61656
7.62206
7.62789
7.63407
7.64065
7.64766
7.65514
7.66312
7.67166
7.68078
7.69054
7.70098
7.71213
7.72403
7.73671
7.75019
7.76448
7.7796
7.79555
7.8123
7.82982
7.84807
7.86698
7.88646
7.90636
7.9265
7.94658
7.96609
7.98413
7.99897
8.00716
8.00161
7.96754
7.87449
7.66291
7.2328
6.47576
5.42662
4.40886
3.74575
3.42969
3.30261
3.25408
3.23486
3.22627
3.2216
3.21849
3.2161
3.21417
3.21261
3.21143
3.21063
3.21022
</DataArray>
<DataArray Name="hu" type="Float32" format="ascii">
0.509083
1.52751
2.54613
3.56458
4.58279
5.60069
6.6182
7.63525
8.65179
9.66772
10.6829
11.6974
12.711
13.7236
14.7353
15.7457
16.755
17.7629
18.7693
19.7742
20.7773
21.7787
22.7782
23.7755
24.7707
25.7634
26.7537
27.7412
28.7259
29.7075
30.6858
31.6607
32.6319
33.5992
34.5623
35.521
36.475
37.424
38.3678
39.3059
40.2381
41.1639
42.083
42.995
43.8995
44.7959
45.6838
46.5627
47.4322
48.2915
49.1402
49.9777
50.8033
51.6164
52.4163
53.2024
53.9739
54.7303
55.4708
56.1947
56.9015
57.5906
58.2614
58.9134
59.5461
60.1593
60.7526
61.3258
61.8786
62.4107
62.9219
63.4113
63.8774
64.3171
64.7238
65.0837
65.3685
65.5189
65.4099
64.78
63.0965
59.3571
52.042
40.033
25.1338
12.4931
5.23214
2.08105
0.882814
0.439486
0.267944
0.192763
0.152101
0.124231
0.101465
0.0810445
0.0619275
0.0436596
0.0259695
0.00862026
</DataArray>
<DataArray Name="B" type="Float32" format="ascii">
-13.9
-13.8
-13.7
-13.6
-13.5
-13.4
-13.3
-13.2
-13.1
-13
-12.9
-12.8
-12.7
-12.6
-12.5
-12.4
-12.3
-12.2
-12.1
-12
-11.9
-11.8
-11.7
-11.6
-11.5
-11.4
-11.3
-11.2
-11.1
-11
-10.9
-10.8
-10.7
-10.6
-10.5
-10.4
-10.3
-10.2
-10.1
-10
-9.9
-9.8
-9.7
-9.6
-9.5
-9.4
-9.3
-9.2
-9.1
-9
-8.9
-8.8
-8.7
-8.6
-8.5
-8.4
-8.3
-8.2
-8.1
-8
-7.9
-7.8
-7.7
-7.6
-7.5
-7.4
-7.3
-7.2
-7.1
-7
-6.9
-6.8
-6.7
-6.6
-6.5
-6.4
-6.3
-6.2
-6.1
-6
-5.9
-5.8
-5.7
-5.6
-5.5
-5.4
-5.3
-5.2
-5.1
-5
-4.9
-4.8
-4.7
-4.6
-4.5
-4.4
-4.3
-4.2
-4.1
-4
</DataArray>
</CellData>
</Piece>
</RectilinearGrid>
</VTKFile>
