<?xml version="1.0"?>
<VTKFile type="RectilinearGrid">
<RectilinearGrid WholeExtent="0 100 0 0 0 0">
<Piece Extent="0 100 0 0 0 0">
<Coordinates>
<DataArray type="Float32" format="ascii">
0
10
20
30
40
50
60
70
80
90
100
110
120
130
140
150
160
170
180
190
200
210
220
230
240
250
260
270
280
290
300
310
320
330
340
350
360
370
380
390
400
410
420
430
440
450
460
470
480
490
500
510
520
530
540
550
560
570
580
590
600
610
620
630
640
650
660
670
680
690
700
710
720
730
740
750
760
770
780
790
800
810
820
830
840
850
860
870
880
890
900
910
920
930
940
950
960
970
980
990
1000
</DataArray>
<DataArray type="Float32" format="ascii">
0
</DataArray>
<DataArray type="Float32" format="ascii">
0
</DataArray>
</Coordinates>
<CellData>
<DataArray Name="h" type="Float32" format="ascii">
4.01783
4.01861
4.02018
4.02257
4.02578
4.02983
4.0347
4.04042
4.04698
4.05438
4.06263
4.07172
4.08166
4.09244
4.10406
4.11651
4.12979
4.14388
4.15878
4.17448
4.19095
4.20819
4.22618
4.24489
4.26431
4.28441
4.30517
4.32656
4.34857
4.37115
4.39429
4.41796
4.44213
4.46678
4.49188
4.51741
4.54334
4.56965
4.59633
4.62334
4.65069
4.67834
4.7063
4.73455
4.76311
4.79201
4.82135
4.85138
4.88264
4.91641
4.9556
5.00684
5.08489
5.22117
5.47609
5.94065
6.68485
7.64137
8.58061
9.29445
9.74196
9.99279
10.1276
10.201
10.2434
10.2704
10.2895
10.3048
10.318
10.33
10.3413
10.3522
10.3627
10.3729
10.3828
10.3925
10.4019
10.411
10.4199
10.4285
10.4368
10.4448
10.4525
10.4599
10.467
10.4737
10.48
10.4861
10.4917
10.4969
10.5018
10.5062
10.5102
10.5138
10.5168
10.5194
10.5215
10.5231
10.5241
10.5245
</DataArray>
<DataArray Name="hu" type="Float32" format="ascii">
0.201246
0.603793
1.0062
1.4081
1.80928
2.20957
2.60875
3.00661
3.40299
3.79775
4.19074
4.58178
4.97078
5.35764
5.74229
6.12468
6.50475
6.88254
7.25804
7.63131
8.0024
8.37143
8.73851
9.10377
9.46738
9.82951
10.1904
10.5501
10.909
11.2673
11.6251
11.9827
12.3403
12.6982
13.0565
13.4154
13.7751
14.1358
14.4976
14.8607
15.225
15.5908
15.9581
16.3267
16.6966
17.0672
17.4374
17.8048
18.1635
18.5004
18.7855
18.9514
18.8469
18.1436
16.1811
11.8514
4.00344
-7.11017
-18.8342
-28.0434
-33.6439
-36.3513
-37.2812
-37.252
-36.734
-35.9715
-35.0863
-34.1383
-33.1569
-32.1569
-31.1455
-30.1267
-29.1022
-28.0732
-27.0404
-26.0041
-24.9646
-23.9221
-22.8769
-21.829
-20.7787
-19.7261
-18.6714
-17.6147
-16.5561
-15.4958
-14.4338
-13.3704
-12.3057
-11.2397
-10.1725
-9.10443
-8.03544
-6.96566
-5.89522
-4.82423
-3.75279
-2.68103
-1.60907
-0.536521
</DataArray>
<DataArray Name="B" type="Float32" format="ascii">
-13.9
-13.8
-13.7
-13.6
-13.5
-13.4
-13.3
-13.2
-13.1
-13
-12.9
-12.8
-12.7
-12.6
-12.5
-12.4
-12.3
-12.2
-12.1
-12
-11.9
-11.8
-11.7
-11.6
-11.5
-11.4
-11.3
-11.2
-11.1
-11
-10.9
-10.8
-10.7
-10.6
-10.5
-10.4
-10.3
-10.2
-10.1
-10
-9.9
-9.8
-9.7
-9.6
-9.5
-9.4
-9.3
-9.2
-9.1
-9
-8.9
-8.8
-8.7
-8.6
-8.5
-8.4
-8.3
-8.2
-8.1
-8
-7.9
-7.8
-7.7
-7.6
-7.5
-7.4
-7.3
-7.2
-7.1
-7
-6.9
-6.8
-6.7
-6.6
-6.5
-6.4
-6.3
-6.2
-6.1
-6
-5.9
-5.8
-5.7
-5.6
-5.5
-5.4
-5.3
-5.2
-5.1
-5
-4.9
-4.8
-4.7
-4.6
-4.5
-4.4
-4.3
-4.2
-4.1
-4
</DataArray>
</CellData>
</Piece>
</RectilinearGrid>
</VTKFile>
