<?xml version="1.0"?>
<VTKFile type="RectilinearGrid">
<RectilinearGrid WholeExtent="0 100 0 0 0 0">
<Piece Extent="0 100 0 0 0 0">
<Coordinates>
<DataArray type="Float32" format="ascii">
0
10
20
30
40
50
60
70
80
90
100
110
120
130
140
150
160
170
180
190
200
210
220
230
240
250
260
270
280
290
300
310
320
330
340
350
360
370
380
390
400
410
420
430
440
450
460
470
480
490
500
510
520
530
540
550
560
570
580
590
600
610
620
630
640
650
660
670
680
690
700
710
720
730
740
750
760
770
780
790
800
810
820
830
840
850
860
870
880
890
900
910
920
930
940
950
960
970
980
990
1000
</DataArray>
<DataArray type="Float32" format="ascii">
0
</DataArray>
<DataArray type="Float32" format="ascii">
0
</DataArray>
</Coordinates>
<CellData>
<DataArray Name="h" type="Float32" format="ascii">
10.6638
10.6638
10.6636
10.6635
10.6632
10.663
10.6627
10.6623
10.6619
10.6614
10.6608
10.6601
10.6593
10.6583
10.6569
10.6548
10.6514
10.6457
10.6351
10.615
10.5763
10.5019
10.3607
10.1036
9.67009
9.02838
8.24259
7.47775
6.88331
6.49599
6.26922
6.14133
6.06726
6.02062
5.98751
5.96096
5.93761
5.91587
5.89502
5.87472
5.85485
5.83536
5.81625
5.79753
5.77922
5.76136
5.74396
5.72705
5.71066
5.6948
5.67951
5.66479
5.65067
5.63715
5.62426
5.61199
5.60036
5.58936
5.579
5.56927
5.56016
5.55168
5.5438
5.53651
5.52981
5.52366
5.51807
5.513
5.50845
5.50438
5.50077
5.49762
5.49489
5.49256
5.49062
5.48903
5.48777
5.48682
5.48616
5.48577
5.48561
5.48567
5.48592
5.48635
5.48692
5.48761
5.48841
5.48929
5.49022
5.49119
5.49217
5.49314
5.49408
5.49496
5.49577
5.49647
5.49704
5.49746
5.4977
5.4978
</DataArray>
<DataArray Name="hu" type="Float32" format="ascii">
0.386372
1.15926
1.93224
2.70503
3.4776
4.24988
5.02176
5.79319
6.5641
7.33433
8.10368
8.87179
9.63803
10.4012
11.1589
11.9065
12.6348
13.3253
13.941
14.4093
14.5888
14.2143
12.818
9.68141
4.00144
-4.44383
-14.415
-23.5277
-30.0499
-33.861
-35.7379
-36.4825
-36.6292
-36.4764
-36.1779
-35.8094
-35.4071
-34.9881
-34.5603
-34.1271
-33.6899
-33.2492
-32.8051
-32.3574
-31.906
-31.4506
-30.9908
-30.5266
-30.0577
-29.5839
-29.105
-28.6208
-28.1312
-27.636
-27.1352
-26.6288
-26.1165
-25.5986
-25.0749
-24.5455
-24.0105
-23.4699
-22.9239
-22.3726
-21.8161
-21.2546
-20.6881
-20.117
-19.5412
-18.9611
-18.3767
-17.7883
-17.196
-16.6
-16.0004
-15.3976
-14.7915
-14.1824
-13.5705
-12.9559
-12.3389
-11.7194
-11.0978
-10.4741
-9.84848
-9.2211
-8.59209
-7.96157
-7.32966
-6.69648
-6.06216
-5.42682
-4.79056
-4.15351
-3.51576
-2.87745
-2.23866
-1.59952
-0.96014
-0.320203
</DataArray>
<DataArray Name="B" type="Float32" format="ascii">
-13.9
-13.8
-13.7
-13.6
-13.5
-13.4
-13.3
-13.2
-13.1
-13
-12.9
-12.8
-12.7
-12.6
-12.5
-12.4
-12.3
-12.2
-12.1
-12
-11.9
-11.8
-11.7
-11.6
-11.5
-11.4
-11.3
-11.2
-11.1
-11
-10.9
-10.8
-10.7
-10.6
-10.5
-10.4
-10.3
-10.2
-10.1
-10
-9.9
-9.8
-9.7
-9.6
-9.5
-9.4
-9.3
-9.2
-9.1
-9
-8.9
-8.8
-8.7
-8.6
-8.5
-8.4
-8.3
-8.2
-8.1
-8
-7.9
-7.8
-7.7
-7.6
-7.5
-7.4
-7.3
-7.2
-7.1
-7
-6.9
-6.8
-6.7
-6.6
-6.5
-6.4
-6.3
-6.2
-6.1
-6
-5.9
-5.8
-5.7
-5.6
-5.5
-5.4
-5.3
-5.2
-5.1
-5
-4.9
-4.8
-4.7
-4.6
-4.5
-4.4
-4.3
-4.2
-4.1
-4
</DataArray>
</CellData>
</Piece>
</RectilinearGrid>
</VTKFile>
