<?xml version="1.0"?>
<VTKFile type="RectilinearGrid">
<RectilinearGrid WholeExtent="0 100 0 0 0 0">
<Piece Extent="0 100 0 0 0 0">
<Coordinates>
<DataArray type="Float32" format="ascii">
0
10
20
30
40
50
60
70
80
90
100
110
120
130
140
150
160
170
180
190
200
210
220
230
240
250
260
270
280
290
300
310
320
330
340
350
360
370
380
390
400
410
420
430
440
450
460
470
480
490
500
510
520
530
540
550
560
570
580
590
600
610
620
630
640
650
660
670
680
690
700
710
720
730
740
750
760
770
780
790
800
810
820
830
840
850
860
870
880
890
900
910
920
930
940
950
960
970
980
990
1000
</DataArray>
<DataArray type="Float32" format="ascii">
0
</DataArray>
<DataArray type="Float32" format="ascii">
0
</DataArray>
</Coordinates>
<CellData>
<DataArray Name="h" type="Float32" format="ascii">
3.6116
3.61158
3.61154
3.61147
3.61139
3.61129
3.61116
3.61101
3.61085
3.61066
3.61046
3.61025
3.61001
3.60978
3.60954
3.6093
3.60909
3.6089
3.60876
3.6087
3.60875
3.60896
3.60939
3.61015
3.61135
3.61315
3.61578
3.6195
3.62463
3.63159
3.64082
3.65283
3.66817
3.68738
3.71098
3.73947
3.77326
3.81264
3.85781
3.90887
3.96576
4.02835
4.0964
4.16963
4.24767
4.33015
4.41666
4.50682
4.60021
4.69648
4.79526
4.89622
4.99906
5.10347
5.20921
5.31602
5.42368
5.53198
5.64072
5.74973
5.85883
5.96786
6.07668
6.18515
6.29315
6.40062
6.50755
6.61419
6.72131
6.83101
6.94862
7.08719
7.27727
7.58481
8.12694
9.03182
10.2808
11.6017
12.6782
13.4046
13.8534
14.1323
14.319
14.4576
14.5706
14.6686
14.7567
14.837
14.9102
14.9767
15.0366
15.0898
15.1364
15.1766
15.2105
15.2382
15.26
15.2762
15.2868
15.2921
</DataArray>
<DataArray Name="hu" type="Float32" format="ascii">
0.00351991
0.0105452
0.0175524
0.0245361
0.031478
0.0383468
0.0451281
0.0518053
0.0583267
0.0646565
0.0707542
0.0765605
0.082007
0.087026
0.0915067
0.0953543
0.0984557
0.100672
0.101915
0.102115
0.101276
0.0995334
0.0972054
0.0949093
0.0936403
0.0948889
0.100791
0.114232
0.138931
0.179484
0.241351
0.330731
0.45438
0.619353
0.832653
1.10091
1.43006
1.82503
2.28958
2.8262
3.43607
4.11914
4.87427
5.6994
6.59171
7.54783
8.564
9.63623
10.7604
11.9325
13.1485
14.4045
15.6968
17.022
18.3768
19.7582
21.1632
22.5893
24.034
25.495
26.9699
28.4569
29.9537
31.4583
32.9688
34.4826
35.9967
37.5058
39.0003
40.4588
41.832
43.004
43.7037
43.3229
40.6614
34.0334
22.7998
9.4675
-1.77245
-8.80326
-12.1338
-13.1274
-12.8812
-12.0479
-10.9699
-9.81695
-8.67172
-7.57434
-6.54471
-5.5929
-4.72374
-3.93884
-3.2374
-2.61636
-2.07055
-1.59275
-1.17378
-0.802714
-0.467107
-0.153263
</DataArray>
<DataArray Name="B" type="Float32" format="ascii">
-13.9
-13.8
-13.7
-13.6
-13.5
-13.4
-13.3
-13.2
-13.1
-13
-12.9
-12.8
-12.7
-12.6
-12.5
-12.4
-12.3
-12.2
-12.1
-12
-11.9
-11.8
-11.7
-11.6
-11.5
-11.4
-11.3
-11.2
-11.1
-11
-10.9
-10.8
-10.7
-10.6
-10.5
-10.4
-10.3
-10.2
-10.1
-10
-9.9
-9.8
-9.7
-9.6
-9.5
-9.4
-9.3
-9.2
-9.1
-9
-8.9
-8.8
-8.7
-8.6
-8.5
-8.4
-8.3
-8.2
-8.1
-8
-7.9
-7.8
-7.7
-7.6
-7.5
-7.4
-7.3
-7.2
-7.1
-7
-6.9
-6.8
-6.7
-6.6
-6.5
-6.4
-6.3
-6.2
-6.1
-6
-5.9
-5.8
-5.7
-5.6
-5.5
-5.4
-5.3
-5.2
-5.1
-5
-4.9
-4.8
-4.7
-4.6
-4.5
-4.4
-4.3
-4.2
-4.1
-4
</DataArray>
</CellData>
</Piece>
</RectilinearGrid>
</VTKFile>
