<?xml version="1.0"?>
<VTKFile type="RectilinearGrid">
<RectilinearGrid WholeExtent="0 100 0 0 0 0">
<Piece Extent="0 100 0 0 0 0">
<Coordinates>
<DataArray type="Float32" format="ascii">
0
10
20
30
40
50
60
70
80
90
100
110
120
130
140
150
160
170
180
190
200
210
220
230
240
250
260
270
280
290
300
310
320
330
340
350
360
370
380
390
400
410
420
430
440
450
460
470
480
490
500
510
520
530
540
550
560
570
580
590
600
610
620
630
640
650
660
670
680
690
700
710
720
730
740
750
760
770
780
790
800
810
820
830
840
850
860
870
880
890
900
910
920
930
940
950
960
970
980
990
1000
</DataArray>
<DataArray type="Float32" format="ascii">
0
</DataArray>
<DataArray type="Float32" format="ascii">
0
</DataArray>
</Coordinates>
<CellData>
<DataArray Name="h" type="Float32" format="ascii">
6.62827
6.62841
6.62872
6.62922
6.62991
6.6308
6.63187
6.63313
6.63457
6.6362
6.63801
6.64
6.64218
6.64454
6.64709
6.64982
6.65273
6.65584
6.65913
6.66261
6.66629
6.67017
6.67425
6.67854
6.68304
6.68776
6.69271
6.69789
6.70331
6.70899
6.71494
6.72116
6.72767
6.7345
6.74164
6.74913
6.75699
6.76523
6.77388
6.78296
6.79251
6.80254
6.8131
6.8242
6.8359
6.84821
6.86119
6.87485
6.88925
6.90442
6.92038
6.93718
6.95484
6.9734
6.99286
7.01326
7.0346
7.05689
7.08011
7.10427
7.12933
7.15528
7.18206
7.20962
7.23792
7.26688
7.29644
7.32651
7.35701
7.38786
7.41898
7.45028
7.48169
7.51313
7.54452
7.57579
7.6069
7.63778
7.66838
7.69865
7.72856
7.75805
7.78711
7.81567
7.84368
7.87099
7.89737
7.92234
7.94495
7.96318
7.97267
7.96395
7.91648
7.78674
7.48992
6.89489
5.91588
4.76582
3.91918
3.54949
</DataArray>
<DataArray Name="hu" type="Float32" format="ascii">
0.452935
1.35903
2.2653
3.1714
4.07726
4.98282
5.88798
6.79267
7.69682
8.60034
9.50316
10.4052
11.3063
12.2065
13.1055
14.0034
14.9001
15.7953
16.689
17.581
18.4713
19.3596
20.2459
21.13
22.0117
22.8909
23.7674
24.641
25.5115
26.3788
27.2425
28.1024
28.9584
29.8101
30.6573
31.4997
32.337
33.1689
33.9951
34.8153
35.6291
36.4361
37.236
38.0283
38.8128
39.589
40.3564
41.1149
41.8638
42.6029
43.3317
44.0501
44.7576
45.454
46.139
46.8125
47.4744
48.1247
48.7632
49.3901
50.0056
50.6099
51.2031
51.7858
52.3582
52.9209
53.4742
54.0187
54.5549
55.0832
55.6041
56.118
56.6253
57.1261
57.6208
58.1095
58.5922
59.069
59.5397
60.0042
60.4621
60.9132
61.3566
61.7916
62.2166
62.6293
63.025
63.3951
63.7218
63.9676
64.0526
63.8043
62.8521
60.4313
55.1439
45.1963
30.4944
15.5868
5.95551
1.41594
</DataArray>
<DataArray Name="B" type="Float32" format="ascii">
-13.9
-13.8
-13.7
-13.6
-13.5
-13.4
-13.3
-13.2
-13.1
-13
-12.9
-12.8
-12.7
-12.6
-12.5
-12.4
-12.3
-12.2
-12.1
-12
-11.9
-11.8
-11.7
-11.6
-11.5
-11.4
-11.3
-11.2
-11.1
-11
-10.9
-10.8
-10.7
-10.6
-10.5
-10.4
-10.3
-10.2
-10.1
-10
-9.9
-9.8
-9.7
-9.6
-9.5
-9.4
-9.3
-9.2
-9.1
-9
-8.9
-8.8
-8.7
-8.6
-8.5
-8.4
-8.3
-8.2
-8.1
-8
-7.9
-7.8
-7.7
-7.6
-7.5
-7.4
-7.3
-7.2
-7.1
-7
-6.9
-6.8
-6.7
-6.6
-6.5
-6.4
-6.3
-6.2
-6.1
-6
-5.9
-5.8
-5.7
-5.6
-5.5
-5.4
-5.3
-5.2
-5.1
-5
-4.9
-4.8
-4.7
-4.6
-4.5
-4.4
-4.3
-4.2
-4.1
-4
</DataArray>
</CellData>
</Piece>
</RectilinearGrid>
</VTKFile>
