<?xml version="1.0"?>
<VTKFile type="RectilinearGrid">
<RectilinearGrid WholeExtent="0 100 0 0 0 0">
<Piece Extent="0 100 0 0 0 0">
<Coordinates>
<DataArray type="Float32" format="ascii">
0
10
20
30
40
50
60
70
80
90
100
110
120
130
140
150
160
170
180
190
200
210
220
230
240
250
260
270
280
290
300
310
320
330
340
350
360
370
380
390
400
410
420
430
440
450
460
470
480
490
500
510
520
530
540
550
560
570
580
590
600
610
620
630
640
650
660
670
680
690
700
710
720
730
740
750
760
770
780
790
800
810
820
830
840
850
860
870
880
890
900
910
920
930
940
950
960
970
980
990
1000
</DataArray>
<DataArray type="Float32" format="ascii">
0
</DataArray>
<DataArray type="Float32" format="ascii">
0
</DataArray>
</Coordinates>
<CellData>
<DataArray Name="h" type="Float32" format="ascii">
6.60444
6.60458
6.6049
6.60541
6.60611
6.607
6.60808
6.60936
6.61082
6.61246
6.61429
6.61631
6.61851
6.6209
6.62348
6.62624
6.62919
6.63233
6.63567
6.6392
6.64293
6.64686
6.651
6.65535
6.65991
6.6647
6.66972
6.67498
6.68049
6.68626
6.69231
6.69863
6.70526
6.7122
6.71947
6.7271
6.73509
6.74348
6.75229
6.76154
6.77126
6.78148
6.79223
6.80355
6.81546
6.828
6.84121
6.85513
6.86978
6.88521
6.90145
6.91854
6.93649
6.95534
6.97511
6.99581
7.01746
7.04005
7.06358
7.08803
7.11339
7.13962
7.16667
7.1945
7.22305
7.25226
7.28204
7.31232
7.34302
7.37407
7.40536
7.43684
7.4684
7.49999
7.53153
7.56296
7.59421
7.62524
7.65599
7.68643
7.7165
7.74618
7.77543
7.80422
7.83249
7.86012
7.88694
7.91258
7.9363
7.95659
7.97016
7.96987
7.94019
7.84775
7.62475
7.15362
6.30947
5.17042
4.1817
3.69271
</DataArray>
<DataArray Name="hu" type="Float32" format="ascii">
0.451348
1.35428
2.25739
3.16032
4.06301
4.9654
5.86739
6.7689
7.66988
8.57022
9.46986
10.3687
11.2667
12.1636
13.0595
13.9541
14.8475
15.7395
16.63
17.5188
18.4057
19.2908
20.1738
21.0546
21.9331
22.8089
23.6821
24.5523
25.4194
26.2832
27.1435
28
28.8525
29.7007
30.5444
31.3832
32.2169
33.0452
33.8678
34.6843
35.4943
36.2976
37.0937
37.8823
38.6629
39.4352
40.1988
40.9533
41.6984
42.4336
43.1586
43.8731
44.5768
45.2695
45.9508
46.6208
47.2792
47.9261
48.5614
49.1854
49.798
50.3996
50.9905
51.571
52.1415
52.7025
53.2544
53.7978
54.3332
54.861
55.3816
55.8954
56.4029
56.9042
57.3996
57.8892
58.373
58.8512
59.3234
59.7897
60.2497
60.703
61.149
61.5869
62.0156
62.4329
62.8354
63.2163
63.5617
63.8432
64.0003
63.9026
63.2685
61.5035
57.4532
49.345
36.0524
20.3718
8.42396
2.0698
</DataArray>
<DataArray Name="B" type="Float32" format="ascii">
-13.9
-13.8
-13.7
-13.6
-13.5
-13.4
-13.3
-13.2
-13.1
-13
-12.9
-12.8
-12.7
-12.6
-12.5
-12.4
-12.3
-12.2
-12.1
-12
-11.9
-11.8
-11.7
-11.6
-11.5
-11.4
-11.3
-11.2
-11.1
-11
-10.9
-10.8
-10.7
-10.6
-10.5
-10.4
-10.3
-10.2
-10.1
-10
-9.9
-9.8
-9.7
-9.6
-9.5
-9.4
-9.3
-9.2
-9.1
-9
-8.9
-8.8
-8.7
-8.6
-8.5
-8.4
-8.3
-8.2
-8.1
-8
-7.9
-7.8
-7.7
-7.6
-7.5
-7.4
-7.3
-7.2
-7.1
-7
-6.9
-6.8
-6.7
-6.6
-6.5
-6.4
-6.3
-6.2
-6.1
-6
-5.9
-5.8
-5.7
-5.6
-5.5
-5.4
-5.3
-5.2
-5.1
-5
-4.9
-4.8
-4.7
-4.6
-4.5
-4.4
-4.3
-4.2
-4.1
-4
</DataArray>
</CellData>
</Piece>
</RectilinearGrid>
</VTKFile>
