<?xml version="1.0"?>
<VTKFile type="RectilinearGrid">
<RectilinearGrid WholeExtent="0 100 0 0 0 0">
<Piece Extent="0 100 0 0 0 0">
<Coordinates>
<DataArray type="Float32" format="ascii">
0
10
20
30
40
50
60
70
80
90
100
110
120
130
140
150
160
170
180
190
200
210
220
230
240
250
260
270
280
290
300
310
320
330
340
350
360
370
380
390
400
410
420
430
440
450
460
470
480
490
500
510
520
530
540
550
560
570
580
590
600
610
620
630
640
650
660
670
680
690
700
710
720
730
740
750
760
770
780
790
800
810
820
830
840
850
860
870
880
890
900
910
920
930
940
950
960
970
980
990
1000
</DataArray>
<DataArray type="Float32" format="ascii">
0
</DataArray>
<DataArray type="Float32" format="ascii">
0
</DataArray>
</Coordinates>
<CellData>
<DataArray Name="h" type="Float32" format="ascii">
5.69186
5.6921
5.6926
5.69338
5.69446
5.69582
5.69747
5.69941
5.70165
5.70419
5.70702
5.71016
5.71361
5.71738
5.72147
5.72588
5.73064
5.73574
5.74119
5.74701
5.75321
5.7598
5.76678
5.77419
5.78202
5.7903
5.79905
5.80829
5.81803
5.8283
5.83912
5.85051
5.8625
5.87511
5.88837
5.9023
5.91694
5.93229
5.9484
5.96529
5.98297
6.00148
6.02083
6.04103
6.06209
6.08404
6.10687
6.13058
6.15517
6.18062
6.20692
6.23406
6.26199
6.29069
6.32012
6.35023
6.38099
6.41233
6.44421
6.47658
6.50938
6.54255
6.57605
6.60982
6.64382
6.678
6.71232
6.74675
6.78125
6.81579
6.85036
6.88492
6.91946
6.95397
6.98844
7.02287
7.05725
7.09157
7.12586
7.16011
7.19438
7.22877
7.26362
7.29991
7.34051
7.39358
7.4816
7.66186
8.05801
8.84694
10.0701
11.4177
12.4745
13.111
13.4356
13.5873
13.6555
13.6861
13.6997
13.705
</DataArray>
<DataArray Name="hu" type="Float32" format="ascii">
0.387205
1.16183
1.93653
2.71095
3.48504
4.25866
5.03171
5.80407
6.57562
7.34625
8.11581
8.88418
9.65124
10.4168
11.1808
11.943
12.7033
13.4616
14.2175
14.9711
15.7219
16.47
17.2151
17.957
18.6953
19.4301
20.1608
20.8875
21.6097
22.3272
23.0398
23.7472
24.4492
25.1454
25.8356
26.5196
27.1969
27.8675
28.5311
29.1874
29.8362
30.4774
31.1109
31.7364
32.354
32.9635
33.565
34.1586
34.7444
35.3225
35.893
36.4564
37.0129
37.5628
38.1066
38.6445
39.1772
39.7051
40.2286
40.7482
41.2643
41.7774
42.2879
42.7962
43.3026
43.8074
44.3109
44.8132
45.3145
45.8149
46.3145
46.8132
47.3111
47.8081
48.3041
48.7989
49.2924
49.7844
50.2747
50.7628
51.2483
51.7302
52.2056
52.667
53.093
53.4229
53.4894
52.8497
50.4463
44.3717
33.2286
19.2965
7.54495
0.490334
-2.64575
-3.50257
-3.25007
-2.50594
-1.55602
-0.525724
</DataArray>
<DataArray Name="B" type="Float32" format="ascii">
-13.9
-13.8
-13.7
-13.6
-13.5
-13.4
-13.3
-13.2
-13.1
-13
-12.9
-12.8
-12.7
-12.6
-12.5
-12.4
-12.3
-12.2
-12.1
-12
-11.9
-11.8
-11.7
-11.6
-11.5
-11.4
-11.3
-11.2
-11.1
-11
-10.9
-10.8
-10.7
-10.6
-10.5
-10.4
-10.3
-10.2
-10.1
-10
-9.9
-9.8
-9.7
-9.6
-9.5
-9.4
-9.3
-9.2
-9.1
-9
-8.9
-8.8
-8.7
-8.6
-8.5
-8.4
-8.3
-8.2
-8.1
-8
-7.9
-7.8
-7.7
-7.6
-7.5
-7.4
-7.3
-7.2
-7.1
-7
-6.9
-6.8
-6.7
-6.6
-6.5
-6.4
-6.3
-6.2
-6.1
-6
-5.9
-5.8
-5.7
-5.6
-5.5
-5.4
-5.3
-5.2
-5.1
-5
-4.9
-4.8
-4.7
-4.6
-4.5
-4.4
-4.3
-4.2
-4.1
-4
</DataArray>
</CellData>
</Piece>
</RectilinearGrid>
</VTKFile>
