<?xml version="1.0"?>
<VTKFile type="RectilinearGrid">
<RectilinearGrid WholeExtent="0 100 0 0 0 0">
<Piece Extent="0 100 0 0 0 0">
<Coordinates>
<DataArray type="Float32" format="ascii">
0
10
20
30
40
50
60
70
80
90
100
110
120
130
140
150
160
170
180
190
200
210
220
230
240
250
260
270
280
290
300
310
320
330
340
350
360
370
380
390
400
410
420
430
440
450
460
470
480
490
500
510
520
530
540
550
560
570
580
590
600
610
620
630
640
650
660
670
680
690
700
710
720
730
740
750
760
770
780
790
800
810
820
830
840
850
860
870
880
890
900
910
920
930
940
950
960
970
980
990
1000
</DataArray>
<DataArray type="Float32" format="ascii">
0
</DataArray>
<DataArray type="Float32" format="ascii">
0
</DataArray>
</Coordinates>
<CellData>
<DataArray Name="h" type="Float32" format="ascii">
4.32647
4.32708
4.32832
4.33023
4.3328
4.33605
4.33997
4.34458
4.3499
4.35592
4.36265
4.3701
4.37829
4.38722
4.3969
4.40734
4.41854
4.43052
4.44328
4.45683
4.47116
4.48627
4.50218
4.51888
4.53636
4.55462
4.57365
4.59344
4.61398
4.63524
4.65723
4.6799
4.70325
4.72724
4.75186
4.77707
4.80285
4.82917
4.856
4.8833
4.91105
4.93923
4.9678
4.99674
5.02602
5.05562
5.08552
5.1157
5.14614
5.17682
5.20774
5.23888
5.27024
5.30184
5.33371
5.36596
5.39885
5.433
5.46991
5.51308
5.57072
5.66161
5.82633
6.14183
6.7143
7.59412
8.64351
9.58611
10.2473
10.6389
10.8515
10.9645
11.0266
11.0633
11.0875
11.1055
11.1202
11.1331
11.1449
11.156
11.1666
11.1766
11.1862
11.1953
11.2039
11.2121
11.2199
11.2271
11.2339
11.2402
11.246
11.2513
11.256
11.2602
11.2638
11.2669
11.2693
11.2711
11.2723
11.2729
</DataArray>
<DataArray Name="hu" type="Float32" format="ascii">
0.253217
0.759728
1.26608
1.77183
2.27675
2.7806
3.28313
3.78411
4.2833
4.78047
5.27539
5.76782
6.25756
6.74439
7.22813
7.7086
8.18561
8.65901
9.12868
9.59451
10.0564
10.5143
10.9681
11.4179
11.8637
12.3054
12.7432
13.1772
13.6075
14.0343
14.4577
14.878
15.2953
15.71
16.1223
16.5325
16.9409
17.3477
17.7532
18.1578
18.5617
18.9651
19.3684
19.7718
20.1754
20.5795
20.9843
21.3898
21.7963
22.2037
22.6123
23.0219
23.4326
23.8442
24.2561
24.6674
25.0754
25.474
25.8489
26.1665
26.3487
26.215
25.3656
22.9923
17.8018
8.73943
-3.20097
-14.6668
-22.8454
-27.3789
-29.3243
-29.7842
-29.4728
-28.7776
-27.8933
-26.9151
-25.8891
-24.8377
-23.7718
-22.6968
-21.6154
-20.5292
-19.439
-18.3452
-17.2482
-16.1483
-15.0456
-13.9405
-12.8332
-11.7238
-10.6126
-9.49985
-8.38565
-7.27019
-6.15364
-5.03618
-3.91798
-2.79921
-1.68004
-0.560191
</DataArray>
<DataArray Name="B" type="Float32" format="ascii">
-13.9
-13.8
-13.7
-13.6
-13.5
-13.4
-13.3
-13.2
-13.1
-13
-12.9
-12.8
-12.7
-12.6
-12.5
-12.4
-12.3
-12.2
-12.1
-12
-11.9
-11.8
-11.7
-11.6
-11.5
-11.4
-11.3
-11.2
-11.1
-11
-10.9
-10.8
-10.7
-10.6
-10.5
-10.4
-10.3
-10.2
-10.1
-10
-9.9
-9.8
-9.7
-9.6
-9.5
-9.4
-9.3
-9.2
-9.1
-9
-8.9
-8.8
-8.7
-8.6
-8.5
-8.4
-8.3
-8.2
-8.1
-8
-7.9
-7.8
-7.7
-7.6
-7.5
-7.4
-7.3
-7.2
-7.1
-7
-6.9
-6.8
-6.7
-6.6
-6.5
-6.4
-6.3
-6.2
-6.1
-6
-5.9
-5.8
-5.7
-5.6
-5.5
-5.4
-5.3
-5.2
-5.1
-5
-4.9
-4.8
-4.7
-4.6
-4.5
-4.4
-4.3
-4.2
-4.1
-4
</DataArray>
</CellData>
</Piece>
</RectilinearGrid>
</VTKFile>
