<?xml version="1.0"?>
<VTKFile type="RectilinearGrid">
<RectilinearGrid WholeExtent="0 100 0 0 0 0">
<Piece Extent="0 100 0 0 0 0">
<Coordinates>
<DataArray type="Float32" format="ascii">
0
10
20
30
40
50
60
70
80
90
100
110
120
130
140
150
160
170
180
190
200
210
220
230
240
250
260
270
280
290
300
310
320
330
340
350
360
370
380
390
400
410
420
430
440
450
460
470
480
490
500
510
520
530
540
550
560
570
580
590
600
610
620
630
640
650
660
670
680
690
700
710
720
730
740
750
760
770
780
790
800
810
820
830
840
850
860
870
880
890
900
910
920
930
940
950
960
970
980
990
1000
</DataArray>
<DataArray type="Float32" format="ascii">
0
</DataArray>
<DataArray type="Float32" format="ascii">
0
</DataArray>
</Coordinates>
<CellData>
<DataArray Name="h" type="Float32" format="ascii">
6.06215
6.06234
6.06275
6.0634
6.0643
6.06544
6.06682
6.06844
6.0703
6.07242
6.07477
6.07738
6.08024
6.08335
6.08672
6.09035
6.09425
6.09842
6.10287
6.1076
6.11263
6.11796
6.12359
6.12955
6.13585
6.14248
6.14948
6.15685
6.16461
6.17278
6.18137
6.19041
6.19992
6.20991
6.22043
6.23148
6.2431
6.25531
6.26815
6.28164
6.29582
6.31071
6.32635
6.34276
6.35997
6.37801
6.3969
6.41666
6.43731
6.45887
6.48135
6.50474
6.52904
6.55425
6.58035
6.60731
6.63511
6.6637
6.69306
6.72312
6.75383
6.78514
6.81698
6.8493
6.88202
6.91508
6.94843
6.982
7.01573
7.04958
7.08349
7.11742
7.15134
7.1852
7.21898
7.25265
7.2862
7.31961
7.35286
7.38595
7.41887
7.45161
7.48418
7.51658
7.54883
7.58094
7.61298
7.64517
7.67815
7.71401
7.7594
7.83478
7.99831
8.38923
9.22604
10.5694
12.0311
13.1146
13.702
13.9349
</DataArray>
<DataArray Name="hu" type="Float32" format="ascii">
0.414235
1.24291
2.07171
2.90032
3.72863
4.55656
5.38401
6.21088
7.03711
7.86258
8.68717
9.5108
10.3333
11.1547
11.9747
12.7932
13.6102
14.4255
15.2389
16.0503
16.8595
17.6663
18.4706
19.2722
20.0709
20.8665
21.6588
22.4476
23.2326
24.0136
24.7903
25.5625
26.3299
27.0922
27.8492
28.6005
29.3458
30.0849
30.8174
31.543
32.2614
32.9723
33.6754
34.3705
35.0572
35.7354
36.4048
37.0652
37.7166
38.3589
38.992
39.6159
40.2306
40.8364
41.4335
42.0219
42.6022
43.1745
43.7393
44.2971
44.8483
45.3934
45.9329
46.4673
46.9971
47.5227
48.0445
48.563
49.0785
49.5913
50.1015
50.6094
51.1151
51.6186
52.1199
52.619
53.1158
53.6102
54.1019
54.5906
55.0763
55.5585
56.0369
56.5112
56.981
57.4456
57.9042
58.355
58.793
59.2031
59.539
59.6579
59.1402
56.8694
50.6055
38.5329
23.4259
11.1954
4.24928
1.0153
</DataArray>
<DataArray Name="B" type="Float32" format="ascii">
-13.9
-13.8
-13.7
-13.6
-13.5
-13.4
-13.3
-13.2
-13.1
-13
-12.9
-12.8
-12.7
-12.6
-12.5
-12.4
-12.3
-12.2
-12.1
-12
-11.9
-11.8
-11.7
-11.6
-11.5
-11.4
-11.3
-11.2
-11.1
-11
-10.9
-10.8
-10.7
-10.6
-10.5
-10.4
-10.3
-10.2
-10.1
-10
-9.9
-9.8
-9.7
-9.6
-9.5
-9.4
-9.3
-9.2
-9.1
-9
-8.9
-8.8
-8.7
-8.6
-8.5
-8.4
-8.3
-8.2
-8.1
-8
-7.9
-7.8
-7.7
-7.6
-7.5
-7.4
-7.3
-7.2
-7.1
-7
-6.9
-6.8
-6.7
-6.6
-6.5
-6.4
-6.3
-6.2
-6.1
-6
-5.9
-5.8
-5.7
-5.6
-5.5
-5.4
-5.3
-5.2
-5.1
-5
-4.9
-4.8
-4.7
-4.6
-4.5
-4.4
-4.3
-4.2
-4.1
-4
</DataArray>
</CellData>
</Piece>
</RectilinearGrid>
</VTKFile>
