<?xml version="1.0"?>
<VTKFile type="RectilinearGrid">
<RectilinearGrid WholeExtent="0 100 0 0 0 0">
<Piece Extent="0 100 0 0 0 0">
<Coordinates>
<DataArray type="Float32" format="ascii">
0
10
20
30
40
50
60
70
80
90
100
110
120
130
140
150
160
170
180
190
200
210
220
230
240
250
260
270
280
290
300
310
320
330
340
350
360
370
380
390
400
410
420
430
440
450
460
470
480
490
500
510
520
530
540
550
560
570
580
590
600
610
620
630
640
650
660
670
680
690
700
710
720
730
740
750
760
770
780
790
800
810
820
830
840
850
860
870
880
890
900
910
920
930
940
950
960
970
980
990
1000
</DataArray>
<DataArray type="Float32" format="ascii">
0
</DataArray>
<DataArray type="Float32" format="ascii">
0
</DataArray>
</Coordinates>
<CellData>
<DataArray Name="h" type="Float32" format="ascii">
3.61678
3.61674
3.61666
3.61653
3.61637
3.61616
3.61592
3.61564
3.61535
3.61506
3.6148
3.61465
3.61468
3.61504
3.61592
3.61756
3.62031
3.62461
3.63096
3.63998
3.65234
3.66874
3.68992
3.71655
3.74924
3.7885
3.83468
3.88799
3.9485
4.01611
4.09062
4.1717
4.25898
4.352
4.4503
4.55339
4.6608
4.77207
4.88676
5.00445
5.12475
5.24728
5.3717
5.49765
5.62481
5.75285
5.88144
6.01025
6.13896
6.26726
6.39481
6.52131
6.64647
6.76999
6.89162
7.0111
7.12819
7.24268
7.35436
7.46303
7.56848
7.67052
7.76894
7.86353
7.95409
8.0404
8.12224
8.1994
8.2717
8.33895
8.40102
8.45781
8.50927
8.55539
8.59626
8.632
8.66284
8.68905
8.71103
8.7293
8.74474
8.7591
8.77656
8.80768
8.87959
9.05753
9.47459
10.3084
11.5859
12.9857
14.0907
14.7649
15.1118
15.2728
15.3431
15.3726
15.3847
15.3896
15.3916
15.3923
</DataArray>
<DataArray Name="hu" type="Float32" format="ascii">
0.000949317
0.0028207
0.00465778
0.0064375
0.00809862
0.00963921
0.0111109
0.012567
0.0141537
0.0161531
0.0190043
0.0234498
0.0306264
0.0421885
0.0604768
0.0886945
0.131013
0.192678
0.28003
0.400409
0.561975
0.773369
1.04329
1.38005
1.79111
2.28266
2.85935
3.52413
4.27821
5.12116
6.05106
7.06482
8.15837
9.32696
10.5654
11.8682
13.2298
14.6448
16.1079
17.614
19.1582
20.7361
22.3435
23.9768
25.6325
27.3074
28.9988
30.704
32.4208
34.1467
35.8795
37.6167
39.3558
41.094
42.8283
44.5551
46.2707
47.9709
49.6513
51.3069
52.9327
54.5232
56.073
57.5763
59.0274
60.4205
61.7499
63.0102
64.1964
65.3037
66.3283
67.2669
68.1174
68.8788
69.5513
70.1366
70.6374
71.058
71.4033
71.6784
71.8869
72.0261
72.0758
71.9669
71.5042
70.1794
66.8203
59.4096
46.587
30.7862
17.1215
8.28473
3.60624
1.42333
0.48848
0.118453
-0.0110627
-0.0423365
-0.0348023
-0.0128206
</DataArray>
<DataArray Name="B" type="Float32" format="ascii">
-13.9
-13.8
-13.7
-13.6
-13.5
-13.4
-13.3
-13.2
-13.1
-13
-12.9
-12.8
-12.7
-12.6
-12.5
-12.4
-12.3
-12.2
-12.1
-12
-11.9
-11.8
-11.7
-11.6
-11.5
-11.4
-11.3
-11.2
-11.1
-11
-10.9
-10.8
-10.7
-10.6
-10.5
-10.4
-10.3
-10.2
-10.1
-10
-9.9
-9.8
-9.7
-9.6
-9.5
-9.4
-9.3
-9.2
-9.1
-9
-8.9
-8.8
-8.7
-8.6
-8.5
-8.4
-8.3
-8.2
-8.1
-8
-7.9
-7.8
-7.7
-7.6
-7.5
-7.4
-7.3
-7.2
-7.1
-7
-6.9
-6.8
-6.7
-6.6
-6.5
-6.4
-6.3
-6.2
-6.1
-6
-5.9
-5.8
-5.7
-5.6
-5.5
-5.4
-5.3
-5.2
-5.1
-5
-4.9
-4.8
-4.7
-4.6
-4.5
-4.4
-4.3
-4.2
-4.1
-4
</DataArray>
</CellData>
</Piece>
</RectilinearGrid>
</VTKFile>
