<?xml version="1.0"?>
<VTKFile type="RectilinearGrid">
<RectilinearGrid WholeExtent="0 100 0 0 0 0">
<Piece Extent="0 100 0 0 0 0">
<Coordinates>
<DataArray type="Float32" format="ascii">
0
10
20
30
40
50
60
70
80
90
100
110
120
130
140
150
160
170
180
190
200
210
220
230
240
250
260
270
280
290
300
310
320
330
340
350
360
370
380
390
400
410
420
430
440
450
460
470
480
490
500
510
520
530
540
550
560
570
580
590
600
610
620
630
640
650
660
670
680
690
700
710
720
730
740
750
760
770
780
790
800
810
820
830
840
850
860
870
880
890
900
910
920
930
940
950
960
970
980
990
1000
</DataArray>
<DataArray type="Float32" format="ascii">
0
</DataArray>
<DataArray type="Float32" format="ascii">
0
</DataArray>
</Coordinates>
<CellData>
<DataArray Name="h" type="Float32" format="ascii">
4.42549
4.42605
4.4272
4.42897
4.43136
4.43437
4.43802
4.44231
4.44725
4.45286
4.45913
4.46608
4.47373
4.48208
4.49114
4.50092
4.51144
4.5227
4.53471
4.54748
4.56103
4.57535
4.59045
4.60634
4.62301
4.64046
4.65871
4.67773
4.69752
4.71807
4.73938
4.76141
4.78417
4.80762
4.83174
4.85651
4.88191
4.9079
4.93445
4.96154
4.98914
5.01721
5.04573
5.07466
5.10398
5.13365
5.16366
5.19398
5.22458
5.25545
5.28656
5.3179
5.34947
5.38123
5.4132
5.44538
5.47779
5.5105
5.54369
5.57778
5.61382
5.6543
5.70511
5.78005
5.9101
6.15854
6.62835
7.41114
8.44772
9.48037
10.2653
10.753
11.0228
11.1657
11.2425
11.2864
11.314
11.3336
11.3491
11.3624
11.3744
11.3854
11.3958
11.4057
11.415
11.4238
11.432
11.4398
11.447
11.4537
11.4599
11.4655
11.4705
11.4749
11.4788
11.482
11.4846
11.4865
11.4878
11.4884
</DataArray>
<DataArray Name="hu" type="Float32" format="ascii">
0.266832
0.800553
1.33411
1.8671
2.39929
2.93045
3.46032
3.98867
4.51526
5.03988
5.56226
6.08216
6.5994
7.11375
7.62498
8.13288
8.63727
9.13796
9.63479
10.1276
10.6162
11.1007
11.5807
12.0564
12.5277
12.9944
13.4568
13.9147
14.3684
14.8178
15.2632
15.7047
16.1425
16.5768
17.0079
17.436
17.8614
18.2845
18.7054
19.1246
19.5422
19.9587
20.3744
20.7894
21.2041
21.6187
22.0335
22.4486
22.8642
23.2805
23.6976
24.1156
24.5346
24.9546
25.3756
25.7975
26.22
26.6423
27.0627
27.4771
27.8755
28.2347
28.4994
28.5405
28.0625
26.4335
22.5043
14.917
3.67092
-8.49718
-18.1117
-23.9033
-26.6336
-27.5061
-27.3917
-26.7834
-25.9326
-24.9626
-23.9329
-22.8724
-21.7948
-20.7069
-19.612
-18.512
-17.4077
-16.2997
-15.1885
-14.0745
-12.9578
-11.8388
-10.7176
-9.59457
-8.46982
-7.34356
-6.21603
-5.08743
-3.95796
-2.82782
-1.69723
-0.565925
</DataArray>
<DataArray Name="B" type="Float32" format="ascii">
-13.9
-13.8
-13.7
-13.6
-13.5
-13.4
-13.3
-13.2
-13.1
-13
-12.9
-12.8
-12.7
-12.6
-12.5
-12.4
-12.3
-12.2
-12.1
-12
-11.9
-11.8
-11.7
-11.6
-11.5
-11.4
-11.3
-11.2
-11.1
-11
-10.9
-10.8
-10.7
-10.6
-10.5
-10.4
-10.3
-10.2
-10.1
-10
-9.9
-9.8
-9.7
-9.6
-9.5
-9.4
-9.3
-9.2
-9.1
-9
-8.9
-8.8
-8.7
-8.6
-8.5
-8.4
-8.3
-8.2
-8.1
-8
-7.9
-7.8
-7.7
-7.6
-7.5
-7.4
-7.3
-7.2
-7.1
-7
-6.9
-6.8
-6.7
-6.6
-6.5
-6.4
-6.3
-6.2
-6.1
-6
-5.9
-5.8
-5.7
-5.6
-5.5
-5.4
-5.3
-5.2
-5.1
-5
-4.9
-4.8
-4.7
-4.6
-4.5
-4.4
-4.3
-4.2
-4.1
-4
</DataArray>
</CellData>
</Piece>
</RectilinearGrid>
</VTKFile>
