<?xml version="1.0"?>
<VTKFile type="RectilinearGrid">
<RectilinearGrid WholeExtent="0 100 0 0 0 0">
<Piece Extent="0 100 0 0 0 0">
<Coordinates>
<DataArray type="Float32" format="ascii">
0
10
20
30
40
50
60
70
80
90
100
110
120
130
140
150
160
170
180
190
200
210
220
230
240
250
260
270
280
290
300
310
320
330
340
350
360
370
380
390
400
410
420
430
440
450
460
470
480
490
500
510
520
530
540
550
560
570
580
590
600
610
620
630
640
650
660
670
680
690
700
710
720
730
740
750
760
770
780
790
800
810
820
830
840
850
860
870
880
890
900
910
920
930
940
950
960
970
980
990
1000
</DataArray>
<DataArray type="Float32" format="ascii">
0
</DataArray>
<DataArray type="Float32" format="ascii">
0
</DataArray>
</Coordinates>
<CellData>
<DataArray Name="h" type="Float32" format="ascii">
3.63279
3.6374
3.64695
3.66202
3.68339
3.71192
3.7485
3.79392
3.84883
3.91363
3.98849
4.07332
4.16782
4.27148
4.38366
4.50361
4.63052
4.76356
4.90191
5.04476
5.19134
5.34091
5.49279
5.64631
5.80087
5.95588
6.1108
6.26508
6.41822
6.5697
6.71902
6.8657
7.00921
7.14906
7.28474
7.41572
7.54148
7.6615
7.77528
7.88233
7.98219
8.07448
8.15887
8.23513
8.30318
8.36303
8.41488
8.45906
8.49607
8.52654
8.55122
8.57092
8.5865
8.5988
8.60863
8.61671
8.62365
8.62996
8.636
8.64203
8.64816
8.65441
8.66072
8.66696
8.67297
8.67858
8.68363
8.68801
8.69165
8.69452
8.69666
8.69811
8.69897
8.69934
8.69933
8.69901
8.69847
8.69775
8.6969
8.69593
8.69483
8.69357
8.69205
8.69001
8.6869
8.6815
8.67115
8.65
8.60528
8.5097
8.30739
7.89732
7.14883
6.04342
4.89839
4.1311
3.77491
3.64164
3.59658
3.58309
</DataArray>
<DataArray Name="hu" type="Float32" format="ascii">
0.0675499
0.212394
0.38628
0.608189
0.896621
1.26895
1.74082
2.32549
3.03332
3.87153
4.84398
5.95144
7.19185
8.56084
10.0522
11.6585
13.3713
15.1818
17.081
19.0598
21.1095
23.2213
25.3869
27.5979
29.8464
32.1244
34.4241
36.7375
39.0565
41.373
43.6786
45.9643
48.2211
50.4394
52.6092
54.7203
56.7619
58.7233
60.5934
62.3617
64.018
65.5529
66.9584
68.2282
69.3583
70.347
71.1957
71.9085
72.4923
72.9567
73.3128
73.5735
73.7518
73.8606
73.9122
73.9174
73.8856
73.8249
73.7417
73.6415
73.529
73.4078
73.2815
73.153
73.0249
72.8994
72.7784
72.6631
72.5542
72.4518
72.3558
72.2655
72.1802
72.0988
72.0204
71.9443
71.8697
71.796
71.7228
71.6496
71.5758
71.5003
71.4207
71.3322
71.2247
71.0753
70.8346
70.3941
69.5183
67.7102
63.9889
56.7339
44.3814
28.1495
13.6767
5.29605
1.8164
0.594302
0.186515
0.0421112
</DataArray>
<DataArray Name="B" type="Float32" format="ascii">
-13.9
-13.8
-13.7
-13.6
-13.5
-13.4
-13.3
-13.2
-13.1
-13
-12.9
-12.8
-12.7
-12.6
-12.5
-12.4
-12.3
-12.2
-12.1
-12
-11.9
-11.8
-11.7
-11.6
-11.5
-11.4
-11.3
-11.2
-11.1
-11
-10.9
-10.8
-10.7
-10.6
-10.5
-10.4
-10.3
-10.2
-10.1
-10
-9.9
-9.8
-9.7
-9.6
-9.5
-9.4
-9.3
-9.2
-9.1
-9
-8.9
-8.8
-8.7
-8.6
-8.5
-8.4
-8.3
-8.2
-8.1
-8
-7.9
-7.8
-7.7
-7.6
-7.5
-7.4
-7.3
-7.2
-7.1
-7
-6.9
-6.8
-6.7
-6.6
-6.5
-6.4
-6.3
-6.2
-6.1
-6
-5.9
-5.8
-5.7
-5.6
-5.5
-5.4
-5.3
-5.2
-5.1
-5
-4.9
-4.8
-4.7
-4.6
-4.5
-4.4
-4.3
-4.2
-4.1
-4
</DataArray>
</CellData>
</Piece>
</RectilinearGrid>
</VTKFile>
