<?xml version="1.0"?>
<VTKFile type="RectilinearGrid">
<RectilinearGrid WholeExtent="0 100 0 0 0 0">
<Piece Extent="0 100 0 0 0 0">
<Coordinates>
<DataArray type="Float32" format="ascii">
0
10
20
30
40
50
60
70
80
90
100
110
120
130
140
150
160
170
180
190
200
210
220
230
240
250
260
270
280
290
300
310
320
330
340
350
360
370
380
390
400
410
420
430
440
450
460
470
480
490
500
510
520
530
540
550
560
570
580
590
600
610
620
630
640
650
660
670
680
690
700
710
720
730
740
750
760
770
780
790
800
810
820
830
840
850
860
870
880
890
900
910
920
930
940
950
960
970
980
990
1000
</DataArray>
<DataArray type="Float32" format="ascii">
0
</DataArray>
<DataArray type="Float32" format="ascii">
0
</DataArray>
</Coordinates>
<CellData>
<DataArray Name="h" type="Float32" format="ascii">
10
10
10
10
10
10
10
10
10
10
10
10
10
10
10
10
10.0002
10.0018
10.0095
10.0388
10.1275
10.3455
10.7463
11.161
11.2829
11.2691
11.2703
11.2724
11.2744
11.2758
11.277
11.2778
11.2784
11.2788
11.2789
11.2775
11.2693
11.2384
11.1587
11.0138
10.8145
10.5809
10.326
10.0584
9.78705
9.52443
9.28821
9.09893
8.97486
8.92798
8.96311
9.078
9.26236
9.49808
9.76345
10.0392
10.3113
10.5698
10.805
11.0038
11.1478
11.2274
11.2583
11.2663
11.2673
11.2668
11.266
11.2649
11.2634
11.2617
11.2594
11.2568
11.2532
11.2514
11.257
11.1677
10.7738
10.355
10.1285
10.0385
10.0093
10.0018
10.0002
10
10
10
10
10
10
10
10
10
10
10
10
10
10
10
10
10
</DataArray>
<DataArray Name="hu" type="Float32" format="ascii">
-20
-20
-20
-20
-20
-20
-20
-20
-20
-20
-20
-20
-20
-20
-20
-20.0003
-20.0029
-20.0214
-20.1138
-20.4659
-21.5423
-24.2412
-29.4064
-35.0524
-36.8718
-36.6864
-36.6882
-36.7211
-36.744
-36.7617
-36.7759
-36.7888
-36.8009
-36.8126
-36.8213
-36.8103
-36.7034
-36.2797
-35.1763
-33.1767
-30.4629
-27.356
-24.0639
-20.7064
-17.3507
-14.0134
-10.6616
-7.23978
-3.71594
-0.113978
3.49547
7.0386
10.4853
13.8643
17.2317
20.6203
24.0102
27.3255
30.4362
33.1324
35.1158
36.2172
36.6419
36.7475
36.7559
36.7441
36.7289
36.7126
36.6949
36.6745
36.6494
36.6162
36.5747
36.546
36.6509
35.2493
29.7913
24.3636
21.5538
20.4621
20.1117
20.0209
20.0029
20.0003
20
20
20
20
20
20
20
20
20
20
20
20
20
20
20
20
</DataArray>
</CellData>
</Piece>
</RectilinearGrid>
</VTKFile>
