<?xml version="1.0"?>
<VTKFile type="RectilinearGrid">
<RectilinearGrid WholeExtent="0 100 0 0 0 0">
<Piece Extent="0 100 0 0 0 0">
<Coordinates>
<DataArray type="Float32" format="ascii">
0
10
20
30
40
50
60
70
80
90
100
110
120
130
140
150
160
170
180
190
200
210
220
230
240
250
260
270
280
290
300
310
320
330
340
350
360
370
380
390
400
410
420
430
440
450
460
470
480
490
500
510
520
530
540
550
560
570
580
590
600
610
620
630
640
650
660
670
680
690
700
710
720
730
740
750
760
770
780
790
800
810
820
830
840
850
860
870
880
890
900
910
920
930
940
950
960
970
980
990
1000
</DataArray>
<DataArray type="Float32" format="ascii">
0
</DataArray>
<DataArray type="Float32" format="ascii">
0
</DataArray>
</Coordinates>
<CellData>
<DataArray Name="h" type="Float32" format="ascii">
10.0018
10.0077
10.028
10.0918
10.2733
10.6536
11.0621
11.2344
11.2662
11.2711
11.2729
11.2742
11.2753
11.2763
11.2772
11.2779
11.2779
11.2745
11.2591
11.2174
11.1396
11.0304
10.8995
10.7549
10.6013
10.4417
10.278
10.1115
9.9432
9.77412
9.60515
9.43726
9.27158
9.10945
8.95251
8.80269
8.66228
8.53384
8.42002
8.32319
8.24497
8.18571
8.14409
8.11734
8.10175
8.09358
8.08977
8.08822
8.0877
8.08763
8.08785
8.08849
8.09008
8.09372
8.10138
8.11597
8.14111
8.18053
8.23719
8.31269
8.40702
8.51884
8.64593
8.78572
8.93566
9.09337
9.25681
9.42425
9.5942
9.76541
9.93676
10.1072
10.2756
10.4408
10.6011
10.7545
10.8977
11.0258
11.1315
11.2063
11.2469
11.2619
11.2651
11.2648
11.2638
11.2625
11.2612
11.2596
11.2577
11.2551
11.2505
11.2272
11.104
10.7349
10.3101
10.0985
10.0287
10.0077
10.0018
10.0004
</DataArray>
<DataArray Name="hu" type="Float32" format="ascii">
-20.022
-20.0925
-20.3361
-21.1075
-23.3386
-28.1892
-33.6911
-36.1755
-36.653
-36.7281
-36.7557
-36.7747
-36.7896
-36.8016
-36.8116
-36.819
-36.8167
-36.7672
-36.5531
-35.9709
-34.8873
-33.3714
-31.5757
-29.621
-27.5822
-25.5048
-23.4179
-21.3416
-19.2912
-17.2795
-15.3177
-13.4172
-11.5893
-9.84632
-8.20191
-6.67126
-5.27117
-4.01938
-2.93304
-2.02604
-1.30522
-0.766596
-0.393178
-0.156326
-0.0209733
0.0472972
0.0764586
0.0856342
0.0859899
0.0832888
0.0806438
0.0810206
0.0897193
0.11703
0.18079
0.307534
0.530672
0.885277
1.40126
2.09789
2.98181
4.04852
5.2858
6.67738
8.20576
9.85385
11.6058
13.4472
15.3646
17.3455
19.3774
21.4472
23.5402
25.6388
27.7196
29.7497
31.6798
33.4334
34.8974
35.9402
36.5062
36.7156
36.7617
36.76
36.7477
36.7323
36.7137
36.6915
36.663
36.6267
36.5507
36.2132
34.3803
29.2754
23.7982
21.1888
20.3443
20.0924
20.0217
20.0042
</DataArray>
</CellData>
</Piece>
</RectilinearGrid>
</VTKFile>
