<?xml version="1.0"?>
<VTKFile type="RectilinearGrid">
<RectilinearGrid WholeExtent="0 100 0 0 0 0">
<Piece Extent="0 100 0 0 0 0">
<Coordinates>
<DataArray type="Float32" format="ascii">
0
10
20
30
40
50
60
70
80
90
100
110
120
130
140
150
160
170
180
190
200
210
220
230
240
250
260
270
280
290
300
310
320
330
340
350
360
370
380
390
400
410
420
430
440
450
460
470
480
490
500
510
520
530
540
550
560
570
580
590
600
610
620
630
640
650
660
670
680
690
700
710
720
730
740
750
760
770
780
790
800
810
820
830
840
850
860
870
880
890
900
910
920
930
940
950
960
970
980
990
1000
</DataArray>
<DataArray type="Float32" format="ascii">
0
</DataArray>
<DataArray type="Float32" format="ascii">
0
</DataArray>
</Coordinates>
<CellData>
<DataArray Name="h" type="Float32" format="ascii">
10
10
10
10
10
10.0002
10.0013
10.0059
10.0231
10.0775
10.2315
10.5812
11.0258
11.2344
11.2669
11.2708
11.2725
11.2738
11.2749
11.2757
11.2764
11.2771
11.2777
11.2773
11.2726
11.2525
11.1993
11.1022
10.9684
10.8104
10.6374
10.4545
10.2651
10.0713
9.87507
9.6779
9.48146
9.28762
9.09857
8.91701
8.74616
8.58978
8.45183
8.33597
8.24465
8.17822
8.13439
8.10872
8.09604
8.09223
8.09562
8.10748
8.1316
8.17302
8.23635
8.32427
8.43696
8.57242
8.72726
8.89761
9.07967
9.27006
9.46591
9.66478
9.86461
10.0635
10.2596
10.4508
10.6345
10.8071
10.9631
11.0937
11.188
11.2401
11.2599
11.2645
11.2646
11.2638
11.2628
11.2617
11.2604
11.2587
11.2568
11.254
11.2501
11.2248
11.0679
10.6408
10.2498
10.08
10.0232
10.0059
10.0012
10.0002
10
10
10
10
10
10
</DataArray>
<DataArray Name="hu" type="Float32" format="ascii">
-20
-20
-20
-20
-20.0003
-20.0025
-20.015
-20.071
-20.2769
-20.9343
-22.8203
-27.2489
-33.1826
-36.1614
-36.6556
-36.7092
-36.7387
-36.7607
-36.7796
-36.7945
-36.8072
-36.8178
-36.8252
-36.8194
-36.7503
-36.4678
-35.7207
-34.3634
-32.5091
-30.3548
-28.0405
-25.6495
-23.2329
-20.8251
-18.4519
-16.1349
-13.8942
-11.7493
-9.72116
-7.83221
-6.10711
-4.57203
-3.25249
-2.16913
-1.33143
-0.731126
-0.339124
-0.108868
0.0145369
0.0851936
0.153304
0.268425
0.483367
0.852464
1.42356
2.22893
3.28096
4.57402
6.0902
7.80533
9.69344
11.7292
13.8889
16.1498
18.4902
20.8875
23.3172
25.7493
28.1446
30.4467
32.5681
34.374
35.6907
36.4221
36.7006
36.7662
36.7678
36.7556
36.7396
36.7211
36.6989
36.6727
36.6396
36.6011
36.535
36.1758
33.8479
28.0339
23.0477
20.9645
20.2779
20.0702
20.0147
20.0024
20.0003
20
20
20
20
20
</DataArray>
</CellData>
</Piece>
</RectilinearGrid>
</VTKFile>
