<?xml version="1.0"?>
<VTKFile type="RectilinearGrid">
<RectilinearGrid WholeExtent="0 100 0 0 0 0">
<Piece Extent="0 100 0 0 0 0">
<Coordinates>
<DataArray type="Float32" format="ascii">
0
10
20
30
40
50
60
70
80
90
100
110
120
130
140
150
160
170
180
190
200
210
220
230
240
250
260
270
280
290
300
310
320
330
340
350
360
370
380
390
400
410
420
430
440
450
460
470
480
490
500
510
520
530
540
550
560
570
580
590
600
610
620
630
640
650
660
670
680
690
700
710
720
730
740
750
760
770
780
790
800
810
820
830
840
850
860
870
880
890
900
910
920
930
940
950
960
970
980
990
1000
</DataArray>
<DataArray type="Float32" format="ascii">
0
</DataArray>
<DataArray type="Float32" format="ascii">
0
</DataArray>
</Coordinates>
<CellData>
<DataArray Name="h" type="Float32" format="ascii">
11.2782
11.3011
11.2965
11.2959
11.294
11.2163
11.0086
10.6866
10.4813
10.4327
10.3424
10.215
10.088
9.96325
9.83791
9.71323
9.58879
9.46478
9.34149
9.21938
9.09889
8.98066
8.86532
8.75372
8.6468
8.54569
8.45172
8.36634
8.29106
8.22732
8.17616
8.13797
8.11209
8.09676
8.08931
8.08681
8.08671
8.0874
8.0881
8.08863
8.08905
8.08943
8.08981
8.09016
8.09049
8.09075
8.09094
8.09107
8.09112
8.09113
8.09106
8.09095
8.09078
8.09055
8.09027
8.08996
8.08964
8.08933
8.08906
8.08878
8.08844
8.08796
8.08748
8.08762
8.08989
8.09661
8.11067
8.13479
8.17092
8.21994
8.28169
8.35526
8.43936
8.53245
8.63313
8.74004
8.852
8.96799
9.08715
9.20876
9.33218
9.45688
9.58242
9.70846
9.83478
9.96161
10.0882
10.2153
10.3415
10.4421
10.5149
10.7045
10.9994
11.192
11.2647
11.3078
11.2999
11.2852
11.2955
11.2039
</DataArray>
<DataArray Name="hu" type="Float32" format="ascii">
-36.4427
-36.7331
-36.7254
-36.7115
-36.431
-35.6436
-33.0054
-28.6881
-25.9325
-25.2885
-24.1492
-22.5317
-20.9441
-19.4102
-17.9092
-16.4335
-14.9891
-13.5799
-12.2087
-10.8788
-9.59319
-8.3567
-7.17394
-6.05151
-4.99648
-4.01742
-3.12415
-2.32709
-1.63676
-1.06234
-0.609296
-0.277535
-0.0582013
0.0663436
0.120974
0.13284
0.12457
0.111439
0.100273
0.0927579
0.0881782
0.0852285
0.0831189
0.081472
0.0802012
0.0793922
0.0793091
0.0798794
0.0810395
0.082581
0.0841428
0.085216
0.0857367
0.0854909
0.0845325
0.0831718
0.0813423
0.0791708
0.0762374
0.0718698
0.0648579
0.0543814
0.0416835
0.0326554
0.0409382
0.0881243
0.200428
0.403494
0.716363
1.14964
1.70537
2.37908
3.16281
4.04617
5.019
6.07151
7.19487
8.38151
9.6252
10.9205
12.2627
13.648
15.0735
16.5354
18.0301
19.5516
21.1044
22.6996
24.298
25.587
26.5464
29.0851
33.0937
35.7049
36.5444
36.4822
36.5671
36.6902
36.4451
35.3077
</DataArray>
</CellData>
</Piece>
</RectilinearGrid>
</VTKFile>
