<?xml version="1.0"?>
<VTKFile type="RectilinearGrid">
<RectilinearGrid WholeExtent="0 100 0 0 0 0">
<Piece Extent="0 100 0 0 0 0">
<Coordinates>
<DataArray type="Float32" format="ascii">
0
10
20
30
40
50
60
70
80
90
100
110
120
130
140
150
160
170
180
190
200
210
220
230
240
250
260
270
280
290
300
310
320
330
340
350
360
370
380
390
400
410
420
430
440
450
460
470
480
490
500
510
520
530
540
550
560
570
580
590
600
610
620
630
640
650
660
670
680
690
700
710
720
730
740
750
760
770
780
790
800
810
820
830
840
850
860
870
880
890
900
910
920
930
940
950
960
970
980
990
1000
</DataArray>
<DataArray type="Float32" format="ascii">
0
</DataArray>
<DataArray type="Float32" format="ascii">
0
</DataArray>
</Coordinates>
<CellData>
<DataArray Name="h" type="Float32" format="ascii">
10
10
10
10
10
10
10
10
10
10
10
10.0001
10.0007
10.0039
10.017
10.0607
10.1845
10.4734
10.9205
11.2113
11.2649
11.2694
11.2709
11.2731
11.2746
11.2759
11.2769
11.2778
11.2785
11.2791
11.2786
11.2727
11.2486
11.1848
11.0674
10.904
10.7102
10.4974
10.2724
10.0397
9.80286
9.565
9.32961
9.10078
8.88356
8.68443
8.51168
8.37535
8.28615
8.2528
8.27894
8.36162
8.4927
8.66189
8.85928
9.07653
9.30691
9.54499
9.78625
10.0268
10.2628
10.4903
10.7043
10.8975
11.0586
11.1739
11.2369
11.2607
11.2663
11.2664
11.2654
11.2642
11.2629
11.2613
11.2595
11.2572
11.2545
11.2514
11.247
11.203
10.9598
10.5029
10.1907
10.0611
10.0168
10.0038
10.0007
10.0001
10
10
10
10
10
10
10
10
10
10
10
10
</DataArray>
<DataArray Name="hu" type="Float32" format="ascii">
-20
-20
-20
-20
-20
-20
-20
-20
-20
-20
-20.0001
-20.0011
-20.0082
-20.0462
-20.2032
-20.7308
-22.2419
-25.8676
-31.7546
-35.8218
-36.6456
-36.6959
-36.719
-36.7428
-36.762
-36.7771
-36.79
-36.8009
-36.8103
-36.8166
-36.8072
-36.7225
-36.3847
-35.4949
-33.8665
-31.6248
-29.017
-26.2232
-23.3517
-20.4718
-17.6344
-14.8818
-12.2532
-9.78791
-7.52673
-5.50884
-3.76316
-2.29245
-1.05566
0.0395273
1.12302
2.3291
3.76049
5.46931
7.46061
9.7091
12.1758
14.8181
17.5935
20.4582
23.3646
26.2553
29.0533
31.644
33.8509
35.4502
36.3313
36.6683
36.7515
36.7582
36.7485
36.7351
36.7192
36.7004
36.6779
36.6495
36.6146
36.5759
36.5126
35.8544
32.3378
26.2527
22.3188
20.7359
20.2013
20.0454
20.008
20.001
20.0001
20
20
20
20
20
20
20
20
20
20
20
</DataArray>
</CellData>
</Piece>
</RectilinearGrid>
</VTKFile>
