<?xml version="1.0"?>
<VTKFile type="RectilinearGrid">
<RectilinearGrid WholeExtent="0 100 0 0 0 0">
<Piece Extent="0 100 0 0 0 0">
<Coordinates>
<DataArray type="Float32" format="ascii">
0
10
20
30
40
50
60
70
80
90
100
110
120
130
140
150
160
170
180
190
200
210
220
230
240
250
260
270
280
290
300
310
320
330
340
350
360
370
380
390
400
410
420
430
440
450
460
470
480
490
500
510
520
530
540
550
560
570
580
590
600
610
620
630
640
650
660
670
680
690
700
710
720
730
740
750
760
770
780
790
800
810
820
830
840
850
860
870
880
890
900
910
920
930
940
950
960
970
980
990
1000
</DataArray>
<DataArray type="Float32" format="ascii">
0
</DataArray>
<DataArray type="Float32" format="ascii">
0
</DataArray>
</Coordinates>
<CellData>
<DataArray Name="h" type="Float32" format="ascii">
10.7184
10.4124
10.4114
10.4433
10.3025
10.1746
10.0636
9.95212
9.83923
9.72349
9.60482
9.48771
9.37434
9.26352
9.15442
9.04707
8.94174
8.83887
8.73897
8.6428
8.55129
8.46541
8.38622
8.31499
8.25299
8.20133
8.16068
8.13101
8.1114
8.10006
8.09466
8.09282
8.09265
8.09295
8.09315
8.09313
8.09291
8.09258
8.09222
8.09185
8.0915
8.09118
8.0909
8.09066
8.09049
8.09036
8.09029
8.09024
8.09022
8.09021
8.09022
8.09025
8.09031
8.0904
8.09055
8.09076
8.09103
8.09136
8.09174
8.09215
8.09259
8.09304
8.09347
8.09381
8.09398
8.09394
8.09378
8.09399
8.09563
8.10047
8.1108
8.12896
8.15687
8.19561
8.24539
8.30569
8.37551
8.45362
8.53877
8.62987
8.72594
8.82601
8.92928
9.0352
9.14329
9.25316
9.36439
9.47692
9.5913
9.71064
9.83458
9.95634
10.0716
10.1851
10.3073
10.442
10.4555
10.4773
10.7579
11.097
</DataArray>
<DataArray Name="hu" type="Float32" format="ascii">
-28.9502
-24.7427
-24.6498
-25.0901
-23.3326
-21.7164
-20.3553
-18.9855
-17.6382
-16.3412
-15.0951
-13.8669
-12.6422
-11.4349
-10.2561
-9.11157
-8.00582
-6.94348
-5.93022
-4.97143
-4.07316
-3.24345
-2.49147
-1.82599
-1.25519
-0.785554
-0.420076
-0.156066
0.0163187
0.113859
0.157602
0.16844
0.163048
0.15197
0.14027
0.129511
0.119722
0.110643
0.102191
0.0945188
0.0879422
0.082743
0.0791163
0.0771023
0.0765345
0.077107
0.078383
0.0799968
0.081678
0.0832966
0.0848106
0.0861769
0.0873101
0.087965
0.0877952
0.0864199
0.0835366
0.0790623
0.0730625
0.0657753
0.0575556
0.0487378
0.0395506
0.0299648
0.0197031
0.00868915
-0.00188848
-0.00774464
0.000550788
0.0385014
0.126304
0.285156
0.532856
0.880797
1.33327
1.88858
2.5411
3.28312
4.10604
5.0008
5.95913
6.97474
8.04203
9.15514
10.3094
11.5007
12.7261
13.9809
15.2564
16.5239
17.7819
19.0841
20.4574
21.8579
23.3893
25.0607
25.1984
25.5186
29.2388
33.8529
</DataArray>
</CellData>
</Piece>
</RectilinearGrid>
</VTKFile>
