<?xml version="1.0"?>
<VTKFile type="RectilinearGrid">
<RectilinearGrid WholeExtent="0 100 0 0 0 0">
<Piece Extent="0 100 0 0 0 0">
<Coordinates>
<DataArray type="Float32" format="ascii">
0
10
20
30
40
50
60
70
80
90
100
110
120
130
140
150
160
170
180
190
200
210
220
230
240
250
260
270
280
290
300
310
320
330
340
350
360
370
380
390
400
410
420
430
440
450
460
470
480
490
500
510
520
530
540
550
560
570
580
590
600
610
620
630
640
650
660
670
680
690
700
710
720
730
740
750
760
770
780
790
800
810
820
830
840
850
860
870
880
890
900
910
920
930
940
950
960
970
980
990
1000
</DataArray>
<DataArray type="Float32" format="ascii">
0
</DataArray>
<DataArray type="Float32" format="ascii">
0
</DataArray>
</Coordinates>
<CellData>
<DataArray Name="h" type="Float32" format="ascii">
10
10
10
10
10
10
10
10
10
10
10
10
10
10
10
10
10
10
10
10
10
10
10
10
10.0004
10.003
10.0153
10.0592
10.1776
10.4161
10.7496
11.0427
11.1965
11.2491
11.2637
11.2681
11.2702
11.2714
11.2723
11.2728
11.2748
11.2905
11.3547
11.5159
11.8007
12.187
12.61
12.9864
13.244
13.3399
13.2598
13.0139
12.6422
12.2152
11.8173
11.5188
11.3476
11.2792
11.2624
11.26
11.2591
11.2577
11.2558
11.2528
11.247
11.2308
11.1778
11.0307
10.7479
10.4168
10.1771
10.0585
10.0151
10.0029
10.0004
10
10
10
10
10
10
10
10
10
10
10
10
10
10
10
10
10
10
10
10
10
10
10
10
10
</DataArray>
<DataArray Name="hu" type="Float32" format="ascii">
-20
-20
-20
-20
-20
-20
-20
-20
-20
-20
-20
-20
-20
-20
-20
-20
-20
-20
-20
-20
-20
-20
-20
-20.0005
-20.0051
-20.0359
-20.1837
-20.7119
-22.1562
-25.1367
-29.4664
-33.4512
-35.6406
-36.4145
-36.6348
-36.7068
-36.744
-36.7708
-36.7926
-36.8115
-36.8145
-36.7055
-36.2061
-34.9017
-32.4563
-28.7056
-23.5455
-16.9023
-8.9325
-0.174964
8.57153
16.5206
23.1614
28.3607
32.1919
34.7303
36.1013
36.6266
36.7365
36.7269
36.7
36.6691
36.6314
36.5803
36.4895
36.2455
35.4684
33.3566
29.4731
25.1516
22.1501
20.7039
20.1803
20.0351
20.005
20.0005
20
20
20
20
20
20
20
20
20
20
20
20
20
20
20
20
20
20
20
20
20
20
20
20
</DataArray>
</CellData>
</Piece>
</RectilinearGrid>
</VTKFile>
