<?xml version="1.0"?>
<VTKFile type="RectilinearGrid">
<RectilinearGrid WholeExtent="0 100 0 0 0 0">
<Piece Extent="0 100 0 0 0 0">
<Coordinates>
<DataArray type="Float32" format="ascii">
0
10
20
30
40
50
60
70
80
90
100
110
120
130
140
150
160
170
180
190
200
210
220
230
240
250
260
270
280
290
300
310
320
330
340
350
360
370
380
390
400
410
420
430
440
450
460
470
480
490
500
510
520
530
540
550
560
570
580
590
600
610
620
630
640
650
660
670
680
690
700
710
720
730
740
750
760
770
780
790
800
810
820
830
840
850
860
870
880
890
900
910
920
930
940
950
960
970
980
990
1000
</DataArray>
<DataArray type="Float32" format="ascii">
0
</DataArray>
<DataArray type="Float32" format="ascii">
0
</DataArray>
</Coordinates>
<CellData>
<DataArray Name="h" type="Float32" format="ascii">
10
10
10
10
10
10
10
10
10
10
10
10
10
10
10
10
10
10.0003
10.002
10.0106
10.0429
10.1391
10.3686
10.7723
11.1675
11.2811
11.2696
11.2704
11.2726
11.2746
11.2759
11.2769
11.2775
11.2779
11.2782
11.2783
11.2771
11.2691
11.2387
11.1596
11.014
10.8107
10.5703
10.3082
10.0381
9.77708
9.54636
9.36658
9.25209
9.20973
9.24177
9.34791
9.523
9.75329
10.0172
10.2916
10.5575
10.8
11.0034
11.1486
11.2277
11.2581
11.266
11.2669
11.2665
11.2657
11.2648
11.2635
11.262
11.2598
11.2571
11.2536
11.2518
11.2558
11.1695
10.7959
10.3777
10.14
10.0426
10.0104
10.002
10.0003
10
10
10
10
10
10
10
10
10
10
10
10
10
10
10
10
10
10
</DataArray>
<DataArray Name="hu" type="Float32" format="ascii">
-20
-20
-20
-20
-20
-20
-20
-20
-20
-20
-20
-20
-20
-20
-20
-20
-20.0003
-20.0033
-20.0241
-20.1271
-20.5155
-21.683
-24.5327
-29.7502
-35.1476
-36.8443
-36.689
-36.6866
-36.7184
-36.7416
-36.7603
-36.7761
-36.7908
-36.8042
-36.8165
-36.8252
-36.8144
-36.7098
-36.2934
-35.1997
-33.1907
-30.4234
-27.2208
-23.7974
-20.2528
-16.6007
-12.7933
-8.77441
-4.53975
-0.161745
4.23178
8.5071
12.5783
16.4377
20.1363
23.7202
27.1715
30.3823
33.1379
35.1361
36.2299
36.6475
36.7506
36.7585
36.7464
36.7304
36.7127
36.6931
36.6711
36.645
36.6118
36.571
36.5453
36.6247
35.2808
30.0892
24.6509
21.6942
20.5111
20.1249
20.0236
20.0033
20.0003
20
20
20
20
20
20
20
20
20
20
20
20
20
20
20
20
20
</DataArray>
</CellData>
</Piece>
</RectilinearGrid>
</VTKFile>
