<?xml version="1.0"?>
<VTKFile type="RectilinearGrid">
<RectilinearGrid WholeExtent="0 100 0 0 0 0">
<Piece Extent="0 100 0 0 0 0">
<Coordinates>
<DataArray type="Float32" format="ascii">
0
10
20
30
40
50
60
70
80
90
100
110
120
130
140
150
160
170
180
190
200
210
220
230
240
250
260
270
280
290
300
310
320
330
340
350
360
370
380
390
400
410
420
430
440
450
460
470
480
490
500
510
520
530
540
550
560
570
580
590
600
610
620
630
640
650
660
670
680
690
700
710
720
730
740
750
760
770
780
790
800
810
820
830
840
850
860
870
880
890
900
910
920
930
940
950
960
970
980
990
1000
</DataArray>
<DataArray type="Float32" format="ascii">
0
</DataArray>
<DataArray type="Float32" format="ascii">
0
</DataArray>
</Coordinates>
<CellData>
<DataArray Name="h" type="Float32" format="ascii">
11.3062
11.2967
11.2974
11.2783
11.2029
10.9757
10.6233
10.4461
10.4252
10.3281
10.197
10.0721
9.94988
9.82752
9.70526
9.58298
9.46162
9.34103
9.22149
9.1034
8.98736
8.87398
8.76407
8.65854
8.55845
8.46506
8.37975
8.30398
8.23916
8.18638
8.14618
8.11816
8.10085
8.09185
8.0883
8.08761
8.08799
8.0885
8.08888
8.08913
8.08938
8.08966
8.08997
8.09028
8.09056
8.09076
8.09089
8.09096
8.09098
8.09096
8.09092
8.09085
8.09074
8.09058
8.09036
8.0901
8.08983
8.08957
8.08939
8.08927
8.08918
8.08901
8.08871
8.08851
8.08918
8.09237
8.10053
8.11644
8.14264
8.18078
8.23148
8.29441
8.36858
8.45271
8.54533
8.64507
8.75065
8.86092
8.97494
9.09187
9.21104
9.33182
9.45377
9.57659
9.7003
9.82425
9.94798
10.072
10.1974
10.325
10.4294
10.479
10.6396
10.9572
11.2033
11.2846
11.2878
11.2975
11.2973
11.3143
</DataArray>
<DataArray Name="hu" type="Float32" format="ascii">
-36.8282
-36.7101
-36.696
-36.4719
-35.3463
-32.1345
-27.6341
-25.4068
-25.1826
-23.9803
-22.3192
-20.7704
-19.2739
-17.8
-16.3552
-14.9424
-13.5593
-12.212
-10.9048
-9.64053
-8.42356
-7.25817
-6.15015
-5.10605
-4.13377
-3.24242
-2.44202
-1.74279
-1.15424
-0.683013
-0.3306
-0.0906969
0.0518132
0.11979
0.139368
0.134065
0.12052
0.107286
0.0973554
0.0905555
0.0859737
0.0828623
0.0807016
0.0791705
0.0782884
0.0780721
0.0784295
0.0794634
0.0809698
0.0828036
0.0845992
0.0860236
0.0868574
0.0870189
0.0864673
0.0852377
0.0834586
0.080965
0.0776349
0.0730218
0.0664133
0.0569205
0.0443863
0.0310096
0.0243918
0.0396858
0.0992569
0.228872
0.452101
0.785624
1.23759
1.80809
2.49162
3.27961
4.16184
5.12868
6.17089
7.28041
8.45028
9.6748
10.949
12.2687
13.6299
15.0291
16.46
17.9226
19.4168
20.9351
22.4935
24.112
25.434
26.0862
28.2018
32.3588
35.2315
36.2978
36.6287
36.5948
36.6341
36.8201
</DataArray>
</CellData>
</Piece>
</RectilinearGrid>
</VTKFile>
