<?xml version="1.0"?>
<VTKFile type="RectilinearGrid">
<RectilinearGrid WholeExtent="0 100 0 0 0 0">
<Piece Extent="0 100 0 0 0 0">
<Coordinates>
<DataArray type="Float32" format="ascii">
0
10
20
30
40
50
60
70
80
90
100
110
120
130
140
150
160
170
180
190
200
210
220
230
240
250
260
270
280
290
300
310
320
330
340
350
360
370
380
390
400
410
420
430
440
450
460
470
480
490
500
510
520
530
540
550
560
570
580
590
600
610
620
630
640
650
660
670
680
690
700
710
720
730
740
750
760
770
780
790
800
810
820
830
840
850
860
870
880
890
900
910
920
930
940
950
960
970
980
990
1000
</DataArray>
<DataArray type="Float32" format="ascii">
0
</DataArray>
<DataArray type="Float32" format="ascii">
0
</DataArray>
</Coordinates>
<CellData>
<DataArray Name="h" type="Float32" format="ascii">
10
10
10
10
10
10
10
10
10
10
10
10
10
10
10
10
10
10
10
10
10
10
10
10
10
10
10
10
10
10
10
10.0005
10.0043
10.0258
10.1067
10.3111
10.6442
10.9762
11.172
11.2446
11.5282
12.2145
13.1071
13.926
14.5081
14.8271
14.9558
14.9922
14.9991
14.9999
14.9991
14.9924
14.9566
14.8302
14.5174
13.9467
13.1383
12.2387
11.524
11.2232
11.1488
10.9556
10.6321
10.3058
10.1046
10.0252
10.0042
10.0005
10
10
10
10
10
10
10
10
10
10
10
10
10
10
10
10
10
10
10
10
10
10
10
10
10
10
10
10
10
10
10
10
</DataArray>
<DataArray Name="hu" type="Float32" format="ascii">
-20
-20
-20
-20
-20
-20
-20
-20
-20
-20
-20
-20
-20
-20
-20
-20
-20
-20
-20
-20
-20
-20
-20
-20
-20
-20
-20
-20
-20
-20
-20.0004
-20.0056
-20.0515
-20.3092
-21.2895
-23.8262
-28.1216
-32.6064
-35.3882
-36.3818
-34.4327
-28.6666
-20.4808
-12.1864
-5.77953
-2.07276
-0.533807
-0.0940735
-0.0106722
-1.12018e-05
0.0104922
0.0924636
0.524472
2.0355
5.67252
11.9612
20.1404
28.3131
34.185
36.2021
35.1654
32.3925
27.9855
23.7628
21.2649
20.3021
20.0501
20.0055
20.0004
20
20
20
20
20
20
20
20
20
20
20
20
20
20
20
20
20
20
20
20
20
20
20
20
20
20
20
20
20
20
20
</DataArray>
</CellData>
</Piece>
</RectilinearGrid>
</VTKFile>
