<?xml version="1.0"?>
<VTKFile type="RectilinearGrid">
<RectilinearGrid WholeExtent="0 100 0 0 0 0">
<Piece Extent="0 100 0 0 0 0">
<Coordinates>
<DataArray type="Float32" format="ascii">
0
10
20
30
40
50
60
70
80
90
100
110
120
130
140
150
160
170
180
190
200
210
220
230
240
250
260
270
280
290
300
310
320
330
340
350
360
370
380
390
400
410
420
430
440
450
460
470
480
490
500
510
520
530
540
550
560
570
580
590
600
610
620
630
640
650
660
670
680
690
700
710
720
730
740
750
760
770
780
790
800
810
820
830
840
850
860
870
880
890
900
910
920
930
940
950
960
970
980
990
1000
</DataArray>
<DataArray type="Float32" format="ascii">
0
</DataArray>
<DataArray type="Float32" format="ascii">
0
</DataArray>
</Coordinates>
<CellData>
<DataArray Name="h" type="Float32" format="ascii">
11.119
11.2455
11.2687
11.2725
11.2742
11.2754
11.2764
11.2773
11.278
11.278
11.2752
11.2629
11.2289
11.1646
11.0728
10.9616
10.8378
10.7058
10.5683
10.427
10.2828
10.1367
9.98925
9.84105
9.69269
9.54476
9.39793
9.25297
9.11076
8.97238
8.83908
8.71235
8.59391
8.48561
8.38933
8.30675
8.239
8.18635
8.14799
8.12206
8.10595
8.09686
8.09228
8.09028
8.08958
8.08947
8.08955
8.08967
8.08976
8.0898
8.08979
8.08973
8.08965
8.08961
8.08975
8.09043
8.09231
8.09658
8.10505
8.12013
8.1446
8.18108
8.23161
8.2972
8.3778
8.47248
8.57967
8.69754
8.82424
8.958
9.09729
9.24074
9.38723
9.53577
9.68553
9.83576
9.98579
10.1349
10.2825
10.4278
10.5698
10.7073
10.8383
10.9601
11.0682
11.1564
11.2179
11.2507
11.2627
11.2652
11.2648
11.2638
11.2625
11.261
11.2592
11.2569
11.2525
11.2352
11.1463
10.8485
</DataArray>
<DataArray Name="hu" type="Float32" format="ascii">
-34.2762
-36.2756
-36.6719
-36.7423
-36.7663
-36.7824
-36.7949
-36.8056
-36.8145
-36.8163
-36.7806
-36.6119
-36.139
-35.2413
-33.9623
-32.4253
-30.7354
-28.9605
-27.1418
-25.3053
-23.4683
-21.6432
-19.8396
-18.0655
-16.3277
-14.6329
-12.9876
-11.3991
-9.875
-8.42425
-7.05686
-5.7841
-4.61836
-3.57254
-2.65887
-1.88708
-1.26201
-0.781186
-0.433363
-0.199105
-0.053642
0.028795
0.0708283
0.0894925
0.0958882
0.0963316
0.0940003
0.09036
0.0860983
0.0816234
0.0772854
0.0734088
0.0703695
0.0687938
0.0699701
0.0767517
0.0949012
0.134686
0.212132
0.348937
0.57041
0.901652
1.36323
1.96809
2.72055
3.61742
4.65014
5.80717
7.07589
8.44387
9.89952
11.4324
13.033
14.693
16.4046
18.1602
19.9523
21.7729
23.6126
25.4602
27.3011
29.1153
30.8737
32.5321
34.0229
35.2495
36.1074
36.5638
36.7275
36.7595
36.7536
36.7399
36.7237
36.7047
36.6811
36.65
36.5868
36.3281
34.9858
30.6621
</DataArray>
</CellData>
</Piece>
</RectilinearGrid>
</VTKFile>
