<?xml version="1.0"?>
<VTKFile type="RectilinearGrid">
<RectilinearGrid WholeExtent="0 100 0 0 0 0">
<Piece Extent="0 100 0 0 0 0">
<Coordinates>
<DataArray type="Float32" format="ascii">
0
10
20
30
40
50
60
70
80
90
100
110
120
130
140
150
160
170
180
190
200
210
220
230
240
250
260
270
280
290
300
310
320
330
340
350
360
370
380
390
400
410
420
430
440
450
460
470
480
490
500
510
520
530
540
550
560
570
580
590
600
610
620
630
640
650
660
670
680
690
700
710
720
730
740
750
760
770
780
790
800
810
820
830
840
850
860
870
880
890
900
910
920
930
940
950
960
970
980
990
1000
</DataArray>
<DataArray type="Float32" format="ascii">
0
</DataArray>
<DataArray type="Float32" format="ascii">
0
</DataArray>
</Coordinates>
<CellData>
<DataArray Name="h" type="Float32" format="ascii">
11.2953
11.297
11.2756
11.1838
10.9245
10.5806
10.4437
10.431
10.3218
10.1877
10.065
9.94488
9.82438
9.70436
9.58467
9.46536
9.34675
9.2295
9.11362
8.99959
8.88796
8.77949
8.67504
8.57562
8.48243
8.39678
8.32008
8.25373
8.1989
8.15626
8.12567
8.10597
8.09505
8.09019
8.08878
8.08882
8.08918
8.08944
8.08955
8.08961
8.08972
8.08989
8.09013
8.09037
8.09058
8.09073
8.09081
8.09083
8.09082
8.0908
8.09077
8.09074
8.09068
8.09057
8.09042
8.09022
8.09002
8.08985
8.08975
8.08976
8.08983
8.0899
8.08985
8.08969
8.08977
8.09107
8.09542
8.10535
8.12355
8.15227
8.19287
8.24569
8.31025
8.38548
8.47008
8.56261
8.66175
8.76628
8.87513
8.9874
9.1023
9.21921
9.33768
9.45752
9.57828
9.69936
9.8209
9.94278
10.0645
10.1877
10.3152
10.425
10.4663
10.6155
10.9409
11.1807
11.2733
11.2938
11.2973
11.2963
</DataArray>
<DataArray Name="hu" type="Float32" format="ascii">
-36.6783
-36.6977
-36.4114
-35.1361
-31.5865
-26.8752
-25.0306
-25.1008
-23.8585
-22.2012
-20.6942
-19.2295
-17.7855
-16.3664
-14.9756
-13.6171
-12.2932
-11.0043
-9.7562
-8.55358
-7.40054
-6.3023
-5.26487
-4.29539
-3.40228
-2.59499
-1.88334
-1.27691
-0.783093
-0.405116
-0.139335
0.0264897
0.112577
0.143847
0.144265
0.131992
0.117657
0.105573
0.0964324
0.0897196
0.0847641
0.0812238
0.0788276
0.077434
0.0769137
0.0771495
0.0780175
0.0793413
0.0810912
0.0829811
0.0848222
0.0864217
0.0875224
0.0880262
0.0878368
0.0868421
0.084969
0.0821414
0.0781955
0.0729856
0.0662056
0.0573422
0.0457564
0.0320149
0.019645
0.0180566
0.0441287
0.120746
0.272755
0.521429
0.88054
1.35559
1.94481
2.64175
3.43763
4.32265
5.28769
6.32418
7.4247
8.58288
9.79354
11.0518
12.3532
13.6918
15.0657
16.4745
17.912
19.3752
20.864
22.3874
24.0022
25.3667
25.8092
27.4349
31.5996
35.0508
36.3162
36.5705
36.5892
36.5714
</DataArray>
</CellData>
</Piece>
</RectilinearGrid>
</VTKFile>
