<?xml version="1.0"?>
<VTKFile type="RectilinearGrid">
<RectilinearGrid WholeExtent="0 100 0 0 0 0">
<Piece Extent="0 100 0 0 0 0">
<Coordinates>
<DataArray type="Float32" format="ascii">
0
10
20
30
40
50
60
70
80
90
100
110
120
130
140
150
160
170
180
190
200
210
220
230
240
250
260
270
280
290
300
310
320
330
340
350
360
370
380
390
400
410
420
430
440
450
460
470
480
490
500
510
520
530
540
550
560
570
580
590
600
610
620
630
640
650
660
670
680
690
700
710
720
730
740
750
760
770
780
790
800
810
820
830
840
850
860
870
880
890
900
910
920
930
940
950
960
970
980
990
1000
</DataArray>
<DataArray type="Float32" format="ascii">
0
</DataArray>
<DataArray type="Float32" format="ascii">
0
</DataArray>
</Coordinates>
<CellData>
<DataArray Name="h" type="Float32" format="ascii">
10
10
10
10
10
10
10
10
10
10
10
10
10
10
10
10
10
10
10
10
10.0004
10.0027
10.0141
10.0555
10.1723
10.4278
10.8223
11.1629
11.2702
11.2707
11.2705
11.272
11.2734
11.2744
11.2752
11.2758
11.2763
11.2767
11.2768
11.2756
11.2684
11.2412
11.1707
11.0436
10.8798
10.721
10.5988
10.5225
10.4848
10.4747
10.4865
10.5235
10.5965
10.7143
10.8698
11.032
11.159
11.2299
11.2574
11.2646
11.2655
11.2651
11.2644
11.2635
11.2624
11.2611
11.2593
11.257
11.2542
11.2526
11.2473
11.1553
10.8339
10.4343
10.1728
10.055
10.0139
10.0027
10.0004
10
10
10
10
10
10
10
10
10
10
10
10
10
10
10
10
10
10
10
10
10
</DataArray>
<DataArray Name="hu" type="Float32" format="ascii">
-20
-20
-20
-20
-20
-20
-20
-20
-20
-20
-20
-20
-20
-20
-20
-20
-20
-20
-20
-20.0004
-20.0046
-20.0328
-20.1692
-20.6668
-22.0891
-25.2788
-30.4102
-35.0838
-36.6695
-36.6901
-36.6863
-36.7174
-36.7452
-36.7676
-36.7855
-36.8009
-36.8144
-36.8265
-36.8358
-36.828
-36.736
-36.3549
-35.3002
-33.1899
-29.9082
-25.5455
-20.2186
-14.0787
-7.34499
-0.285719
6.80697
13.632
19.8951
25.3402
29.7837
33.1032
35.2291
36.2913
36.6739
36.7635
36.7676
36.754
36.7372
36.7184
36.6973
36.6723
36.6419
36.6037
36.5612
36.5331
36.4625
35.077
30.5964
25.3659
22.0963
20.6607
20.1661
20.0321
20.0045
20.0004
20
20
20
20
20
20
20
20
20
20
20
20
20
20
20
20
20
20
20
20
</DataArray>
</CellData>
</Piece>
</RectilinearGrid>
</VTKFile>
