<?xml version="1.0"?>
<VTKFile type="RectilinearGrid">
<RectilinearGrid WholeExtent="0 100 0 0 0 0">
<Piece Extent="0 100 0 0 0 0">
<Coordinates>
<DataArray type="Float32" format="ascii">
0
10
20
30
40
50
60
70
80
90
100
110
120
130
140
150
160
170
180
190
200
210
220
230
240
250
260
270
280
290
300
310
320
330
340
350
360
370
380
390
400
410
420
430
440
450
460
470
480
490
500
510
520
530
540
550
560
570
580
590
600
610
620
630
640
650
660
670
680
690
700
710
720
730
740
750
760
770
780
790
800
810
820
830
840
850
860
870
880
890
900
910
920
930
940
950
960
970
980
990
1000
</DataArray>
<DataArray type="Float32" format="ascii">
0
</DataArray>
<DataArray type="Float32" format="ascii">
0
</DataArray>
</Coordinates>
<CellData>
<DataArray Name="h" type="Float32" format="ascii">
10
10.0001
10.0006
10.0029
10.0118
10.0416
10.1322
10.3717
10.7946
11.1387
11.2491
11.2681
11.2715
11.2734
11.2748
11.276
11.2769
11.2776
11.2781
11.2778
11.2738
11.2573
11.2128
11.13
11.0133
10.8733
10.7184
10.5539
10.383
10.2077
10.0294
9.84957
9.66924
9.48967
9.31222
9.13851
8.97046
8.81038
8.66096
8.52524
8.4063
8.30683
8.22844
8.17104
8.13251
8.10913
8.09645
8.09039
8.08795
8.08737
8.08808
8.09052
8.09629
8.1082
8.13017
8.16656
8.22126
8.29667
8.39329
8.50986
8.64394
8.79256
8.95268
9.12152
9.29665
9.476
9.6578
9.84052
10.0228
10.2032
10.3803
10.5523
10.717
10.8707
11.0082
11.1216
11.2017
11.2451
11.2613
11.265
11.2651
11.2642
11.2631
11.2618
11.2601
11.258
11.2556
11.2516
11.237
11.156
10.8654
10.4182
10.1423
10.0428
10.0118
10.0029
10.0006
10.0001
10
10
</DataArray>
<DataArray Name="hu" type="Float32" format="ascii">
-20.0001
-20.0011
-20.007
-20.0346
-20.1415
-20.5004
-21.6001
-24.5738
-30.0588
-34.7845
-36.4066
-36.6822
-36.7324
-36.7551
-36.7728
-36.7866
-36.7987
-36.8096
-36.8188
-36.8178
-36.7661
-36.5388
-35.9194
-34.7643
-33.1444
-31.2239
-29.1345
-26.9582
-24.7447
-22.5264
-20.3258
-18.1608
-16.0464
-13.9966
-12.0255
-10.1481
-8.38092
-6.74243
-5.25293
-3.93351
-2.80387
-1.87866
-1.16261
-0.646259
-0.304489
-0.100063
0.00855173
0.0586179
0.0779368
0.084662
0.0910191
0.108839
0.155151
0.256134
0.447534
0.770282
1.26251
1.95168
2.8504
3.95689
5.25879
6.73765
8.3728
10.1437
12.0311
14.0174
16.0863
18.2221
20.4089
22.6293
24.8631
27.0838
29.2551
31.3229
33.2031
34.7722
35.8875
36.4911
36.714
36.7624
36.7596
36.746
36.73
36.712
36.6909
36.6647
36.6316
36.5753
36.3614
35.1623
31.0439
25.1647
21.7235
20.5141
20.1416
20.0342
20.0068
20.0011
20.0001
20
</DataArray>
</CellData>
</Piece>
</RectilinearGrid>
</VTKFile>
