<?xml version="1.0"?>
<VTKFile type="RectilinearGrid">
<RectilinearGrid WholeExtent="0 100 0 0 0 0">
<Piece Extent="0 100 0 0 0 0">
<Coordinates>
<DataArray type="Float32" format="ascii">
0
10
20
30
40
50
60
70
80
90
100
110
120
130
140
150
160
170
180
190
200
210
220
230
240
250
260
270
280
290
300
310
320
330
340
350
360
370
380
390
400
410
420
430
440
450
460
470
480
490
500
510
520
530
540
550
560
570
580
590
600
610
620
630
640
650
660
670
680
690
700
710
720
730
740
750
760
770
780
790
800
810
820
830
840
850
860
870
880
890
900
910
920
930
940
950
960
970
980
990
1000
</DataArray>
<DataArray type="Float32" format="ascii">
0
</DataArray>
<DataArray type="Float32" format="ascii">
0
</DataArray>
</Coordinates>
<CellData>
<DataArray Name="h" type="Float32" format="ascii">
11.2665
11.1459
10.8322
10.4901
10.4201
10.4396
10.3225
10.1908
10.0684
9.94459
9.82428
9.70693
9.59068
9.47529
9.36073
9.24732
9.13515
9.02461
8.91629
8.81081
8.70871
8.61082
8.5182
8.43204
8.35367
8.28445
8.22565
8.17819
8.1424
8.11772
8.10261
8.09478
8.09162
8.09088
8.09101
8.09121
8.09122
8.09107
8.09086
8.09067
8.09053
8.09047
8.09047
8.0905
8.09054
8.09056
8.09056
8.09054
8.09051
8.09049
8.09048
8.09049
8.0905
8.09049
8.09048
8.09046
8.09047
8.09052
8.09065
8.09087
8.09117
8.0915
8.09181
8.09197
8.09196
8.09196
8.09267
8.09548
8.10255
8.1164
8.13942
8.1733
8.21879
8.27576
8.3434
8.42054
8.50582
8.59793
8.69564
8.79788
8.90377
9.01269
9.12406
9.2372
9.35172
9.46745
9.58404
9.70138
9.81902
9.93751
10.0576
10.1861
10.3239
10.4458
10.4646
10.5426
10.8519
11.1468
11.2679
11.2943
</DataArray>
<DataArray Name="hu" type="Float32" format="ascii">
-36.2816
-34.6114
-30.3408
-25.7564
-24.7757
-25.0439
-23.5428
-21.8805
-20.4901
-19.1419
-17.7786
-16.4194
-15.0799
-13.766
-12.482
-11.2305
-10.0158
-8.84182
-7.7114
-6.62907
-5.60183
-4.63623
-3.7395
-2.91979
-2.18599
-1.5472
-1.01154
-0.584425
-0.266228
-0.0502082
0.0783129
0.14037
0.159179
0.155162
0.142506
0.128766
0.116688
0.106543
0.0979761
0.0907183
0.084735
0.0801967
0.0772068
0.0757473
0.0755994
0.0764117
0.0778544
0.0796177
0.0814494
0.0832298
0.0849397
0.0865314
0.0878952
0.0888371
0.0890395
0.088188
0.0860068
0.0823034
0.077119
0.0706248
0.0629664
0.0542534
0.0442847
0.0327009
0.0196525
0.00733507
0.00228823
0.0174182
0.0719986
0.188815
0.389442
0.689898
1.09862
1.61681
2.24028
2.96168
3.77234
4.66336
5.62665
6.65473
7.74072
8.87767
10.0604
11.286
12.5504
13.8488
15.1792
16.5379
17.9239
19.3301
20.744
22.1246
23.6126
25.0924
25.3683
26.4202
30.5159
34.5135
36.1797
36.5443
</DataArray>
</CellData>
</Piece>
</RectilinearGrid>
</VTKFile>
