<?xml version="1.0"?>
<VTKFile type="RectilinearGrid">
<RectilinearGrid WholeExtent="0 100 0 0 0 0">
<Piece Extent="0 100 0 0 0 0">
<Coordinates>
<DataArray type="Float32" format="ascii">
0
10
20
30
40
50
60
70
80
90
100
110
120
130
140
150
160
170
180
190
200
210
220
230
240
250
260
270
280
290
300
310
320
330
340
350
360
370
380
390
400
410
420
430
440
450
460
470
480
490
500
510
520
530
540
550
560
570
580
590
600
610
620
630
640
650
660
670
680
690
700
710
720
730
740
750
760
770
780
790
800
810
820
830
840
850
860
870
880
890
900
910
920
930
940
950
960
970
980
990
1000
</DataArray>
<DataArray type="Float32" format="ascii">
0
</DataArray>
<DataArray type="Float32" format="ascii">
0
</DataArray>
</Coordinates>
<CellData>
<DataArray Name="h" type="Float32" format="ascii">
10
10
10
10
10
10
10
10
10
10
10
10
10
10
10.0002
10.0013
10.007
10.0294
10.1
10.2836
10.656
11.103
11.2737
11.2694
11.2702
11.272
11.274
11.2753
11.2765
11.2775
11.2784
11.2792
11.2796
11.2785
11.2707
11.241
11.1647
11.0274
10.8405
10.6226
10.3854
10.1357
9.87871
9.61904
9.36225
9.11645
8.89405
8.71215
8.58988
8.54303
8.57853
8.69182
8.86842
9.08916
9.33613
9.59594
9.85962
10.1209
10.3743
10.6142
10.8328
11.0184
11.1541
11.2298
11.2594
11.2669
11.2676
11.2668
11.2655
11.2641
11.2625
11.2607
11.2585
11.2561
11.2526
11.2513
11.25
11.1224
10.6879
10.2926
10.1008
10.0292
10.0069
10.0013
10.0002
10
10
10
10
10
10
10
10
10
10
10
10
10
10
10
</DataArray>
<DataArray Name="hu" type="Float32" format="ascii">
-20
-20
-20
-20
-20
-20
-20
-20
-20
-20
-20
-20
-20
-20.0002
-20.0021
-20.0155
-20.0841
-20.3533
-21.2067
-23.4687
-28.2253
-34.2473
-36.7315
-36.696
-36.6893
-36.7213
-36.7455
-36.7641
-36.7782
-36.79
-36.7998
-36.8087
-36.8151
-36.8035
-36.7009
-36.2943
-35.2391
-33.344
-30.7939
-27.8849
-24.8055
-21.6675
-18.5478
-15.506
-12.589
-9.82718
-7.22466
-4.75534
-2.37362
-0.0340918
2.30037
4.66892
7.12284
9.71532
12.4784
15.4095
18.476
21.6255
24.7909
27.8864
30.7907
33.3144
35.1854
36.2349
36.6419
36.7436
36.7529
36.7435
36.7311
36.717
36.7002
36.6794
36.653
36.6185
36.5765
36.5545
36.5543
34.6041
28.6588
23.5825
21.2163
20.3503
20.0826
20.0151
20.002
20.0002
20
20
20
20
20
20
20
20
20
20
20
20
20
20
</DataArray>
</CellData>
</Piece>
</RectilinearGrid>
</VTKFile>
