<?xml version="1.0"?>
<VTKFile type="RectilinearGrid">
<RectilinearGrid WholeExtent="0 100 0 0 0 0">
<Piece Extent="0 100 0 0 0 0">
<Coordinates>
<DataArray type="Float32" format="ascii">
0
10
20
30
40
50
60
70
80
90
100
110
120
130
140
150
160
170
180
190
200
210
220
230
240
250
260
270
280
290
300
310
320
330
340
350
360
370
380
390
400
410
420
430
440
450
460
470
480
490
500
510
520
530
540
550
560
570
580
590
600
610
620
630
640
650
660
670
680
690
700
710
720
730
740
750
760
770
780
790
800
810
820
830
840
850
860
870
880
890
900
910
920
930
940
950
960
970
980
990
1000
</DataArray>
<DataArray type="Float32" format="ascii">
0
</DataArray>
<DataArray type="Float32" format="ascii">
0
</DataArray>
</Coordinates>
<CellData>
<DataArray Name="h" type="Float32" format="ascii">
10
10
10
10
10
10
10
10
10
10
10
10
10
10
10
10
10
10
10
10
10
10
10
10
10
10
10
10
10.0001
10.0012
10.0079
10.0372
10.1292
10.3343
10.6465
10.9548
11.1496
11.2314
11.2562
11.2634
11.3263
11.5784
12.0783
12.7466
13.4481
14.0662
14.5265
14.8068
14.9377
14.9729
14.9388
14.8103
14.5355
14.0844
13.4766
12.7792
12.1012
11.5809
11.3137
11.2464
11.238
11.2115
11.1291
10.9388
10.6383
10.3307
10.1275
10.0366
10.0077
10.0012
10.0001
10
10
10
10
10
10
10
10
10
10
10
10
10
10
10
10
10
10
10
10
10
10
10
10
10
10
10
10
10
</DataArray>
<DataArray Name="hu" type="Float32" format="ascii">
-20
-20
-20
-20
-20
-20
-20
-20
-20
-20
-20
-20
-20
-20
-20
-20
-20
-20
-20
-20
-20
-20
-20
-20
-20
-20
-20
-20.0001
-20.0014
-20.0143
-20.0946
-20.4471
-21.564
-24.1126
-28.1331
-32.281
-35.017
-36.2122
-36.5926
-36.6991
-36.2607
-34.2525
-30.0583
-24.0594
-17.2332
-10.7351
-5.58596
-2.3107
-0.700575
-0.00287435
0.687308
2.26891
5.4825
10.5343
16.926
23.693
29.7269
34.0285
36.1218
36.5689
36.4374
36.0282
34.8194
32.1228
28.0475
24.0715
21.5431
20.4388
20.0924
20.0139
20.0014
20.0001
20
20
20
20
20
20
20
20
20
20
20
20
20
20
20
20
20
20
20
20
20
20
20
20
20
20
20
20
</DataArray>
</CellData>
</Piece>
</RectilinearGrid>
</VTKFile>
