<?xml version="1.0"?>
<VTKFile type="RectilinearGrid">
<RectilinearGrid WholeExtent="0 100 0 0 0 0">
<Piece Extent="0 100 0 0 0 0">
<Coordinates>
<DataArray type="Float32" format="ascii">
0
10
20
30
40
50
60
70
80
90
100
110
120
130
140
150
160
170
180
190
200
210
220
230
240
250
260
270
280
290
300
310
320
330
340
350
360
370
380
390
400
410
420
430
440
450
460
470
480
490
500
510
520
530
540
550
560
570
580
590
600
610
620
630
640
650
660
670
680
690
700
710
720
730
740
750
760
770
780
790
800
810
820
830
840
850
860
870
880
890
900
910
920
930
940
950
960
970
980
990
1000
</DataArray>
<DataArray type="Float32" format="ascii">
0
</DataArray>
<DataArray type="Float32" format="ascii">
0
</DataArray>
</Coordinates>
<CellData>
<DataArray Name="h" type="Float32" format="ascii">
10.4082
10.4477
10.2118
10.1107
10.0121
9.9032
9.79351
9.68537
9.57739
9.47033
9.36238
9.25233
9.14158
9.03392
8.93061
8.83084
8.73431
8.64143
8.55286
8.46945
8.3922
8.3223
8.26097
8.20922
8.16773
8.13671
8.11554
8.10279
8.09636
8.09398
8.09369
8.09415
8.09466
8.09496
8.09503
8.0949
8.09464
8.09427
8.09381
8.09329
8.09271
8.09213
8.09155
8.09104
8.09061
8.09029
8.09008
8.08997
8.08992
8.08993
8.08997
8.09006
8.09022
8.09047
8.09084
8.09131
8.09187
8.09248
8.09311
8.09373
8.09429
8.0948
8.09522
8.09556
8.09577
8.09583
8.09568
8.09534
8.095
8.09528
8.09738
8.10313
8.11474
8.13435
8.16355
8.20311
8.25301
8.31269
8.38123
8.45744
8.54013
8.62828
8.72101
8.81755
8.91718
9.01951
9.12464
9.23463
9.35003
9.46616
9.57821
9.68802
9.7977
9.90911
10.0197
10.1262
10.2299
10.4347
10.4522
10.297
</DataArray>
<DataArray Name="hu" type="Float32" format="ascii">
-24.9918
-25.4865
-22.2858
-20.9027
-19.729
-18.4057
-17.1231
-15.8593
-14.6177
-13.3976
-12.2169
-11.0903
-10.0099
-8.95
-7.90545
-6.89045
-5.91629
-4.99014
-4.1189
-3.31009
-2.57201
-1.91269
-1.3401
-0.861897
-0.482955
-0.202582
-0.0132902
0.0993624
0.154817
0.173663
0.173345
0.16561
0.156509
0.14805
0.140268
0.132639
0.124875
0.117005
0.10927
0.102019
0.0955643
0.0901146
0.0858222
0.0827554
0.0808521
0.0800158
0.0800526
0.0807456
0.0818362
0.0830665
0.084193
0.0849738
0.0851608
0.0845272
0.0829014
0.0801437
0.0761776
0.0710051
0.0646931
0.0574545
0.0495711
0.0413604
0.0331654
0.0252688
0.0177101
0.0101963
0.00226474
-0.00624055
-0.0137713
-0.0151118
0.000402398
0.0492221
0.151495
0.327099
0.591603
0.953969
1.41634
1.97501
2.62296
3.35253
4.15587
5.02463
5.95131
6.92931
7.95339
9.01773
10.1136
11.2176
12.3197
13.4543
14.657
15.9098
17.1889
18.4821
19.8057
21.0772
22.3867
24.9857
25.2493
23.469
</DataArray>
</CellData>
</Piece>
</RectilinearGrid>
</VTKFile>
