<?xml version="1.0"?>
<VTKFile type="RectilinearGrid">
<RectilinearGrid WholeExtent="0 100 0 0 0 0">
<Piece Extent="0 100 0 0 0 0">
<Coordinates>
<DataArray type="Float32" format="ascii">
0
10
20
30
40
50
60
70
80
90
100
110
120
130
140
150
160
170
180
190
200
210
220
230
240
250
260
270
280
290
300
310
320
330
340
350
360
370
380
390
400
410
420
430
440
450
460
470
480
490
500
510
520
530
540
550
560
570
580
590
600
610
620
630
640
650
660
670
680
690
700
710
720
730
740
750
760
770
780
790
800
810
820
830
840
850
860
870
880
890
900
910
920
930
940
950
960
970
980
990
1000
</DataArray>
<DataArray type="Float32" format="ascii">
0
</DataArray>
<DataArray type="Float32" format="ascii">
0
</DataArray>
</Coordinates>
<CellData>
<DataArray Name="h" type="Float32" format="ascii">
10.8079
11.1436
11.2504
11.2693
11.2727
11.2744
11.2756
11.2766
11.2774
11.2779
11.2778
11.2748
11.2619
11.2264
11.1597
11.0652
10.9512
10.8246
10.6898
10.5494
10.4052
10.2581
10.1091
9.95887
9.80796
9.65702
9.50671
9.35776
9.21101
9.06743
8.92823
8.79479
8.66876
8.55199
8.44647
8.3541
8.27643
8.21429
8.16749
8.13464
8.11339
8.10084
8.09417
8.09102
8.08976
8.08938
8.08934
8.0894
8.08946
8.0895
8.08951
8.0895
8.08949
8.08957
8.08997
8.09118
8.09412
8.10033
8.11204
8.132
8.16309
8.2078
8.26769
8.3432
8.43373
8.53788
8.65382
8.77959
8.91332
9.0533
9.19804
9.34629
9.49696
9.64913
9.80199
9.95481
10.1069
10.2574
10.4057
10.5507
10.6911
10.825
10.9497
11.0607
11.1516
11.2154
11.2497
11.2623
11.265
11.2648
11.2639
11.2627
11.2613
11.2595
11.2573
11.2534
11.2401
11.1679
10.8974
10.4485
</DataArray>
<DataArray Name="hu" type="Float32" format="ascii">
-30.1282
-34.8243
-36.4163
-36.6947
-36.7458
-36.7666
-36.7821
-36.7947
-36.8063
-36.8161
-36.8179
-36.7798
-36.6019
-36.1074
-35.1755
-33.857
-32.2809
-30.5537
-28.7435
-26.8913
-25.023
-23.1562
-21.3033
-19.474
-17.6764
-15.9177
-14.2049
-12.5452
-10.9464
-9.41706
-7.96699
-6.60718
-5.34998
-4.20864
-3.19653
-2.32557
-1.60399
-1.03368
-0.607967
-0.310941
-0.119218
-0.00590986
0.0546294
0.0831663
0.0941741
0.0964211
0.0945839
0.0909064
0.086429
0.0817066
0.0771206
0.0730456
0.069996
0.0689034
0.0717665
0.0828217
0.110116
0.167144
0.273622
0.454409
0.736304
1.14349
1.69341
2.39466
3.24719
4.24422
5.37478
6.62594
7.9845
9.43794
10.9748
12.5848
14.2586
15.9879
17.7645
19.5804
21.4273
23.2958
25.1743
27.0482
28.8973
30.6924
32.3892
33.9197
35.1852
36.0765
36.554
36.7267
36.7611
36.7552
36.7407
36.7238
36.7047
36.6818
36.6523
36.5996
36.4038
35.3367
31.4722
25.5025
</DataArray>
</CellData>
</Piece>
</RectilinearGrid>
</VTKFile>
