<?xml version="1.0"?>
<VTKFile type="RectilinearGrid">
<RectilinearGrid WholeExtent="0 100 0 0 0 0">
<Piece Extent="0 100 0 0 0 0">
<Coordinates>
<DataArray type="Float32" format="ascii">
0
10
20
30
40
50
60
70
80
90
100
110
120
130
140
150
160
170
180
190
200
210
220
230
240
250
260
270
280
290
300
310
320
330
340
350
360
370
380
390
400
410
420
430
440
450
460
470
480
490
500
510
520
530
540
550
560
570
580
590
600
610
620
630
640
650
660
670
680
690
700
710
720
730
740
750
760
770
780
790
800
810
820
830
840
850
860
870
880
890
900
910
920
930
940
950
960
970
980
990
1000
</DataArray>
<DataArray type="Float32" format="ascii">
0
</DataArray>
<DataArray type="Float32" format="ascii">
0
</DataArray>
</Coordinates>
<CellData>
<DataArray Name="h" type="Float32" format="ascii">
10
10
10
10
10
10
10
10
10
10
10
10
10
10
10
10.0002
10.0016
10.0083
10.0343
10.1144
10.317
10.708
11.1409
11.2812
11.2691
11.2702
11.2722
11.2742
11.2755
11.2768
11.2778
11.2786
11.2792
11.2794
11.2781
11.2699
11.2391
11.1603
11.0181
10.8243
10.5983
10.3522
10.0934
9.82764
9.56165
9.3051
9.07266
8.88347
8.75727
8.70906
8.74529
8.86217
9.04623
9.27769
9.53633
9.80617
10.0764
10.3394
10.5886
10.8157
11.0086
11.1495
11.2281
11.2588
11.2667
11.2676
11.267
11.2659
11.2646
11.263
11.2612
11.2589
11.2564
11.2529
11.2513
11.2556
11.1534
10.7383
10.3265
10.1153
10.034
10.0082
10.0015
10.0002
10
10
10
10
10
10
10
10
10
10
10
10
10
10
10
10
</DataArray>
<DataArray Name="hu" type="Float32" format="ascii">
-20
-20
-20
-20
-20
-20
-20
-20
-20
-20
-20
-20
-20
-20
-20.0002
-20.0025
-20.0185
-20.0993
-20.4115
-21.3827
-23.8858
-28.9034
-34.7706
-36.8431
-36.6881
-36.689
-36.7222
-36.7455
-36.7634
-36.7772
-36.789
-36.7994
-36.8096
-36.8174
-36.8062
-36.7001
-36.2793
-35.1876
-33.2251
-30.5835
-27.5733
-24.3905
-21.1515
-17.9356
-14.7963
-11.7573
-8.8054
-5.89806
-2.99167
-0.0707844
2.85051
5.75779
8.66713
11.6254
14.679
17.8423
21.0885
24.3572
27.5598
30.5695
33.1888
35.1304
36.2181
36.6397
36.7448
36.7536
36.7429
36.7292
36.7146
36.6979
36.6778
36.6523
36.6186
36.5765
36.5487
36.6336
35.043
29.322
24.0069
21.3936
20.4081
20.0975
20.0181
20.0025
20.0002
20
20
20
20
20
20
20
20
20
20
20
20
20
20
20
</DataArray>
</CellData>
</Piece>
</RectilinearGrid>
</VTKFile>
