<?xml version="1.0"?>
<VTKFile type="RectilinearGrid">
<RectilinearGrid WholeExtent="0 100 0 0 0 0">
<Piece Extent="0 100 0 0 0 0">
<Coordinates>
<DataArray type="Float32" format="ascii">
0
10
20
30
40
50
60
70
80
90
100
110
120
130
140
150
160
170
180
190
200
210
220
230
240
250
260
270
280
290
300
310
320
330
340
350
360
370
380
390
400
410
420
430
440
450
460
470
480
490
500
510
520
530
540
550
560
570
580
590
600
610
620
630
640
650
660
670
680
690
700
710
720
730
740
750
760
770
780
790
800
810
820
830
840
850
860
870
880
890
900
910
920
930
940
950
960
970
980
990
1000
</DataArray>
<DataArray type="Float32" format="ascii">
0
</DataArray>
<DataArray type="Float32" format="ascii">
0
</DataArray>
</Coordinates>
<CellData>
<DataArray Name="h" type="Float32" format="ascii">
10.0001
10.0005
10.0024
10.0101
10.0359
10.1154
10.3316
10.7389
11.1084
11.2423
11.267
11.2712
11.2731
11.2745
11.2757
11.2767
11.2776
11.2782
11.278
11.2742
11.2583
11.2154
11.1352
11.0218
10.8855
10.7344
10.5739
10.407
10.2358
10.0617
9.88578
9.70927
9.53322
9.35885
9.18761
9.0212
8.86167
8.71145
8.5733
8.45016
8.3448
8.25922
8.19411
8.14831
8.11893
8.10192
8.09314
8.08915
8.08764
8.08732
8.08779
8.08938
8.09322
8.10149
8.11744
8.1451
8.18852
8.25084
8.33353
8.4363
8.55742
8.69431
8.84408
9.00393
9.17135
9.34415
9.52049
9.69878
9.87765
10.0558
10.2321
10.405
10.5728
10.7334
10.8832
11.0169
11.1268
11.2043
11.2461
11.2617
11.2652
11.2651
11.2642
11.2629
11.2615
11.2598
11.2578
11.2552
11.2508
11.2321
11.1342
10.8138
10.3742
10.1241
10.0368
10.0101
10.0024
10.0005
10.0001
10
</DataArray>
<DataArray Name="hu" type="Float32" format="ascii">
-20.0009
-20.0058
-20.0292
-20.1207
-20.4312
-21.3948
-24.0681
-29.3178
-34.3521
-36.3043
-36.6682
-36.7308
-36.7553
-36.7734
-36.7873
-36.799
-36.8091
-36.8174
-36.8163
-36.767
-36.549
-35.9521
-34.8345
-33.2614
-31.3908
-29.3512
-27.2236
-25.057
-22.8829
-20.7235
-18.5958
-16.5141
-14.4915
-12.541
-10.6762
-8.91198
-7.2649
-5.75348
-4.39752
-3.2166
-2.22719
-1.43854
-0.848134
-0.438831
-0.179944
-0.0328777
0.0406747
0.0719062
0.0821471
0.0842081
0.0861088
0.0955611
0.124494
0.192841
0.330212
0.573814
0.962326
1.528
2.29061
3.25565
4.41642
5.75817
7.26217
8.90872
10.6789
12.5553
14.5219
16.5638
18.6665
20.8152
22.9933
25.1812
27.3534
29.4743
31.4905
33.32
34.842
35.92
36.5013
36.715
36.761
36.7582
36.7454
36.7301
36.7124
36.691
36.664
36.6295
36.5636
36.291
34.8375
30.3412
24.6061
21.5003
20.4425
20.1207
20.0288
20.0057
20.0009
20.0001
</DataArray>
</CellData>
</Piece>
</RectilinearGrid>
</VTKFile>
