<?xml version="1.0"?>
<VTKFile type="RectilinearGrid">
<RectilinearGrid WholeExtent="0 100 0 0 0 0">
<Piece Extent="0 100 0 0 0 0">
<Coordinates>
<DataArray type="Float32" format="ascii">
0
10
20
30
40
50
60
70
80
90
100
110
120
130
140
150
160
170
180
190
200
210
220
230
240
250
260
270
280
290
300
310
320
330
340
350
360
370
380
390
400
410
420
430
440
450
460
470
480
490
500
510
520
530
540
550
560
570
580
590
600
610
620
630
640
650
660
670
680
690
700
710
720
730
740
750
760
770
780
790
800
810
820
830
840
850
860
870
880
890
900
910
920
930
940
950
960
970
980
990
1000
</DataArray>
<DataArray type="Float32" format="ascii">
0
</DataArray>
<DataArray type="Float32" format="ascii">
0
</DataArray>
</Coordinates>
<CellData>
<DataArray Name="h" type="Float32" format="ascii">
10
10
10
10
10
10
10
10.0003
10.0017
10.0079
10.03
10.0983
10.2837
10.669
11.0862
11.2461
11.2677
11.2703
11.2721
11.2734
11.2746
11.2756
11.2765
11.2774
11.2781
11.2778
11.2729
11.2523
11.1972
11.0961
10.9558
10.7897
10.6073
10.4143
10.2143
10.0098
9.80289
9.59542
9.38955
9.18769
8.99279
8.80836
8.63852
8.48776
8.3604
8.2596
8.18627
8.13856
8.11249
8.10399
8.11116
8.13535
8.18035
8.25026
8.3474
8.47143
8.6197
8.78816
8.9724
9.16819
9.37181
9.5801
9.79034
10.0002
10.2073
10.4094
10.6036
10.7858
10.9502
11.0874
11.1858
11.2399
11.2603
11.2649
11.2649
11.2639
11.2628
11.2615
11.2601
11.2584
11.2565
11.2538
11.2506
11.2326
11.1122
10.7266
10.3053
10.1016
10.0301
10.0078
10.0017
10.0003
10
10
10
10
10
10
10
10
</DataArray>
<DataArray Name="hu" type="Float32" format="ascii">
-20
-20
-20
-20
-20
-20
-20.0004
-20.0034
-20.0203
-20.0941
-20.3598
-21.187
-23.4683
-28.3888
-34.0189
-36.3431
-36.6739
-36.715
-36.7431
-36.7648
-36.7824
-36.7961
-36.8072
-36.8163
-36.8225
-36.8152
-36.7435
-36.4523
-35.6811
-34.271
-32.332
-30.0711
-27.6393
-25.1276
-22.5924
-20.0722
-17.5965
-15.1905
-12.8777
-10.6817
-8.62788
-6.744
-5.05996
-3.60572
-2.40669
-1.47637
-0.80782
-0.367713
-0.0968638
0.0824376
0.256576
0.511926
0.926821
1.56274
2.45714
3.6219
5.04787
6.71261
8.58747
10.6425
12.8489
15.1796
17.6086
20.1095
22.6538
25.2077
27.7274
30.1505
32.3819
34.2758
35.6485
36.4062
36.6942
36.7631
36.7663
36.7555
36.741
36.7238
36.7027
36.6773
36.6445
36.6067
36.5492
36.2932
34.484
29.1617
23.7392
21.2266
20.3615
20.0931
20.0199
20.0033
20.0004
20
20
20
20
20
20
20
</DataArray>
</CellData>
</Piece>
</RectilinearGrid>
</VTKFile>
