<?xml version="1.0"?>
<VTKFile type="RectilinearGrid">
<RectilinearGrid WholeExtent="0 100 0 0 0 0">
<Piece Extent="0 100 0 0 0 0">
<Coordinates>
<DataArray type="Float32" format="ascii">
0
10
20
30
40
50
60
70
80
90
100
110
120
130
140
150
160
170
180
190
200
210
220
230
240
250
260
270
280
290
300
310
320
330
340
350
360
370
380
390
400
410
420
430
440
450
460
470
480
490
500
510
520
530
540
550
560
570
580
590
600
610
620
630
640
650
660
670
680
690
700
710
720
730
740
750
760
770
780
790
800
810
820
830
840
850
860
870
880
890
900
910
920
930
940
950
960
970
980
990
1000
</DataArray>
<DataArray type="Float32" format="ascii">
0
</DataArray>
<DataArray type="Float32" format="ascii">
0
</DataArray>
</Coordinates>
<CellData>
<DataArray Name="h" type="Float32" format="ascii">
10
10
10
10
10
10
10
10
10
10
10
10
10
10
10
10
10
10
10
10
10
10
10
10
10
10
10.0001
10.0007
10.0046
10.0227
10.0839
10.236
10.506
10.829
11.0776
11.2033
11.2487
11.2621
11.2661
11.268
11.2867
11.3875
11.6523
12.1007
12.6761
13.2922
13.8681
14.337
14.6451
14.7541
14.6503
14.3494
13.8898
13.3226
12.709
12.1253
11.6604
11.3807
11.2733
11.253
11.2505
11.2453
11.2304
11.1837
11.0603
10.8193
10.5026
10.2342
10.0828
10.0223
10.0045
10.0007
10.0001
10
10
10
10
10
10
10
10
10
10
10
10
10
10
10
10
10
10
10
10
10
10
10
10
10
10
10
</DataArray>
<DataArray Name="hu" type="Float32" format="ascii">
-20
-20
-20
-20
-20
-20
-20
-20
-20
-20
-20
-20
-20
-20
-20
-20
-20
-20
-20
-20
-20
-20
-20
-20
-20
-20
-20.0008
-20.008
-20.0551
-20.2725
-21.0114
-22.8792
-26.2964
-30.5509
-33.974
-35.7734
-36.4442
-36.6508
-36.7232
-36.7615
-36.6478
-35.8668
-33.7287
-29.9446
-24.783
-18.8455
-12.8689
-7.56618
-3.35824
-0.0265935
3.28131
7.42187
12.6294
18.517
24.4153
29.6152
33.4966
35.7268
36.5442
36.6535
36.6
36.5083
36.2773
35.5877
33.8111
30.4629
26.2637
22.8594
20.9988
20.2674
20.0538
20.0078
20.0008
20
20
20
20
20
20
20
20
20
20
20
20
20
20
20
20
20
20
20
20
20
20
20
20
20
20
20
</DataArray>
</CellData>
</Piece>
</RectilinearGrid>
</VTKFile>
