<?xml version="1.0"?>
<VTKFile type="RectilinearGrid">
<RectilinearGrid WholeExtent="0 100 0 0 0 0">
<Piece Extent="0 100 0 0 0 0">
<Coordinates>
<DataArray type="Float32" format="ascii">
0
10
20
30
40
50
60
70
80
90
100
110
120
130
140
150
160
170
180
190
200
210
220
230
240
250
260
270
280
290
300
310
320
330
340
350
360
370
380
390
400
410
420
430
440
450
460
470
480
490
500
510
520
530
540
550
560
570
580
590
600
610
620
630
640
650
660
670
680
690
700
710
720
730
740
750
760
770
780
790
800
810
820
830
840
850
860
870
880
890
900
910
920
930
940
950
960
970
980
990
1000
</DataArray>
<DataArray type="Float32" format="ascii">
0
</DataArray>
<DataArray type="Float32" format="ascii">
0
</DataArray>
</Coordinates>
<CellData>
<DataArray Name="h" type="Float32" format="ascii">
10
10
10
10
10
10
10
10
10
10
10
10
10
10
10
10
10
10
10
10
10
10.0004
10.0029
10.0148
10.0579
10.1778
10.4338
10.8161
11.1425
11.259
11.2692
11.2698
11.2712
11.2727
11.2738
11.2746
11.2753
11.2757
11.2761
11.2761
11.2751
11.2696
11.2516
11.2122
11.1542
11.099
11.0679
11.0627
11.0709
11.0785
11.0783
11.0736
11.0763
11.1007
11.1487
11.2025
11.2407
11.2584
11.2639
11.2647
11.2644
11.2638
11.2629
11.2618
11.2605
11.2586
11.2563
11.2536
11.251
11.2374
11.1333
10.8237
10.4389
10.1781
10.0573
10.0146
10.0028
10.0004
10
10
10
10
10
10
10
10
10
10
10
10
10
10
10
10
10
10
10
10
10
10
</DataArray>
<DataArray Name="hu" type="Float32" format="ascii">
-20
-20
-20
-20
-20
-20
-20
-20
-20
-20
-20
-20
-20
-20
-20
-20
-20
-20
-20
-20
-20.0005
-20.0049
-20.0346
-20.1777
-20.696
-22.1569
-25.3528
-30.3243
-34.7978
-36.5084
-36.6762
-36.6896
-36.7191
-36.7466
-36.7692
-36.7875
-36.8033
-36.8172
-36.8298
-36.8397
-36.8335
-36.7412
-36.3302
-35.1207
-32.5549
-28.373
-22.7119
-15.8983
-8.30266
-0.299987
7.7351
15.42
22.3562
28.1387
32.412
35.0313
36.2638
36.6796
36.7696
36.7716
36.757
36.7393
36.7198
36.6978
36.6721
36.6409
36.6024
36.5594
36.5137
36.3119
34.7625
30.4575
25.4221
22.1612
20.6893
20.1745
20.0338
20.0048
20.0005
20
20
20
20
20
20
20
20
20
20
20
20
20
20
20
20
20
20
20
20
20
</DataArray>
</CellData>
</Piece>
</RectilinearGrid>
</VTKFile>
