<?xml version="1.0"?>
<VTKFile type="RectilinearGrid">
<RectilinearGrid WholeExtent="0 100 0 0 0 0">
<Piece Extent="0 100 0 0 0 0">
<Coordinates>
<DataArray type="Float32" format="ascii">
0
10
20
30
40
50
60
70
80
90
100
110
120
130
140
150
160
170
180
190
200
210
220
230
240
250
260
270
280
290
300
310
320
330
340
350
360
370
380
390
400
410
420
430
440
450
460
470
480
490
500
510
520
530
540
550
560
570
580
590
600
610
620
630
640
650
660
670
680
690
700
710
720
730
740
750
760
770
780
790
800
810
820
830
840
850
860
870
880
890
900
910
920
930
940
950
960
970
980
990
1000
</DataArray>
<DataArray type="Float32" format="ascii">
0
</DataArray>
<DataArray type="Float32" format="ascii">
0
</DataArray>
</Coordinates>
<CellData>
<DataArray Name="h" type="Float32" format="ascii">
10.0069
10.0253
10.0836
10.2525
10.6223
11.0476
11.2349
11.2668
11.2714
11.2731
11.2743
11.2753
11.2762
11.277
11.2777
11.2777
11.2742
11.2588
11.2168
11.1392
11.0309
10.9021
10.7601
10.6095
10.4533
10.293
10.1301
9.96541
9.79989
9.63437
9.46973
9.307
9.14735
8.99224
8.84339
8.70286
8.57302
8.45636
8.35531
8.27175
8.20651
8.15902
8.12715
8.10765
8.09685
8.09149
8.08912
8.08821
8.08792
8.08791
8.08807
8.08847
8.08945
8.09175
8.0968
8.10688
8.12514
8.15518
8.20035
8.26297
8.34396
8.44275
8.55769
8.68649
8.82668
8.97587
9.13193
9.293
9.45755
9.62426
9.792
9.95973
10.1265
10.2912
10.4528
10.6098
10.76
10.9005
11.0266
11.1311
11.2058
11.2465
11.2617
11.2649
11.2646
11.2637
11.2625
11.2612
11.2597
11.2579
11.2554
11.2511
11.2281
11.0973
10.7067
10.2872
10.0896
10.0259
10.0069
10.0016
</DataArray>
<DataArray Name="hu" type="Float32" format="ascii">
-20.0827
-20.3034
-21.0074
-23.0791
-27.7776
-33.4817
-36.1728
-36.6584
-36.7276
-36.7553
-36.7746
-36.7902
-36.8027
-36.813
-36.8207
-36.8182
-36.7674
-36.5497
-35.9617
-34.8772
-33.3739
-31.6047
-29.6854
-27.6866
-25.6513
-23.6066
-21.5715
-19.5604
-17.5851
-15.6562
-13.784
-11.9789
-10.2522
-8.61632
-7.08524
-5.67433
-4.40018
-3.27943
-2.32675
-1.55164
-0.954797
-0.525232
-0.240063
-0.067877
0.0251058
0.0687618
0.0852824
0.0887019
0.0866703
0.0828715
0.0791756
0.077366
0.0808096
0.0965173
0.137471
0.224528
0.386319
0.656023
1.0656
1.63963
2.39147
3.32289
4.42635
5.68849
7.09322
8.62399
10.265
12.0017
13.8208
15.7101
17.6579
19.6529
21.6828
23.7339
25.7896
27.828
29.8179
31.7126
33.4397
34.8902
35.9323
36.5032
36.716
36.7633
36.7615
36.7489
36.7332
36.7141
36.6914
36.6624
36.6265
36.5539
36.2245
34.2727
28.8966
23.511
21.0807
20.3106
20.0828
20.0193
</DataArray>
</CellData>
</Piece>
</RectilinearGrid>
</VTKFile>
