<?xml version="1.0"?>
<VTKFile type="RectilinearGrid">
<RectilinearGrid WholeExtent="0 100 0 0 0 0">
<Piece Extent="0 100 0 0 0 0">
<Coordinates>
<DataArray type="Float32" format="ascii">
0
10
20
30
40
50
60
70
80
90
100
110
120
130
140
150
160
170
180
190
200
210
220
230
240
250
260
270
280
290
300
310
320
330
340
350
360
370
380
390
400
410
420
430
440
450
460
470
480
490
500
510
520
530
540
550
560
570
580
590
600
610
620
630
640
650
660
670
680
690
700
710
720
730
740
750
760
770
780
790
800
810
820
830
840
850
860
870
880
890
900
910
920
930
940
950
960
970
980
990
1000
</DataArray>
<DataArray type="Float32" format="ascii">
0
</DataArray>
<DataArray type="Float32" format="ascii">
0
</DataArray>
</Coordinates>
<CellData>
<DataArray Name="h" type="Float32" format="ascii">
10
10
10
10
10
10
10
10
10
10
10
10
10
10
10
10
10
10
10
10
10
10
10
10
10
10.0001
10.0006
10.0038
10.0192
10.0723
10.2088
10.4642
10.7897
11.0556
11.1952
11.2466
11.262
11.2667
11.2687
11.2698
11.2791
11.3369
11.5126
11.851
12.3327
12.8952
13.4648
13.9662
14.3196
14.4509
14.3286
13.9851
13.4929
12.9285
12.3626
11.8682
11.514
11.3275
11.2659
11.2557
11.254
11.2512
11.2453
11.2283
11.176
11.0401
10.7828
10.4624
10.2076
10.0714
10.0188
10.0037
10.0005
10.0001
10
10
10
10
10
10
10
10
10
10
10
10
10
10
10
10
10
10
10
10
10
10
10
10
10
10
</DataArray>
<DataArray Name="hu" type="Float32" format="ascii">
-20
-20
-20
-20
-20
-20
-20
-20
-20
-20
-20
-20
-20
-20
-20
-20
-20
-20
-20
-20
-20
-20
-20
-20
-20
-20.0006
-20.0066
-20.0459
-20.2301
-20.8701
-22.5422
-25.7552
-30.0148
-33.654
-35.6441
-36.4004
-36.6344
-36.7129
-36.7533
-36.7819
-36.7359
-36.2972
-34.8978
-32.1093
-27.9352
-22.7254
-16.9738
-11.1428
-5.50279
-0.0596073
5.3552
10.9217
16.6668
22.363
27.5809
31.8292
34.7176
36.1857
36.6433
36.6829
36.6422
36.5871
36.4893
36.2316
35.4626
33.513
29.9589
25.7406
22.5282
20.8596
20.2258
20.0448
20.0064
20.0006
20
20
20
20
20
20
20
20
20
20
20
20
20
20
20
20
20
20
20
20
20
20
20
20
20
20
</DataArray>
</CellData>
</Piece>
</RectilinearGrid>
</VTKFile>
