<?xml version="1.0"?>
<VTKFile type="RectilinearGrid">
<RectilinearGrid WholeExtent="0 100 0 0 0 0">
<Piece Extent="0 100 0 0 0 0">
<Coordinates>
<DataArray type="Float32" format="ascii">
0
10
20
30
40
50
60
70
80
90
100
110
120
130
140
150
160
170
180
190
200
210
220
230
240
250
260
270
280
290
300
310
320
330
340
350
360
370
380
390
400
410
420
430
440
450
460
470
480
490
500
510
520
530
540
550
560
570
580
590
600
610
620
630
640
650
660
670
680
690
700
710
720
730
740
750
760
770
780
790
800
810
820
830
840
850
860
870
880
890
900
910
920
930
940
950
960
970
980
990
1000
</DataArray>
<DataArray type="Float32" format="ascii">
0
</DataArray>
<DataArray type="Float32" format="ascii">
0
</DataArray>
</Coordinates>
<CellData>
<DataArray Name="h" type="Float32" format="ascii">
10.0004
10.0021
10.0087
10.0314
10.1022
10.2992
10.692
11.0824
11.237
11.2662
11.271
11.273
11.2743
11.2755
11.2765
11.2774
11.2781
11.278
11.2745
11.259
11.2169
11.1384
11.0275
10.8942
10.7465
10.5896
10.4265
10.2591
10.0889
9.91691
9.74416
9.57166
9.4005
9.23195
9.06754
8.90908
8.75877
8.61911
8.49285
8.38274
8.29104
8.21896
8.16619
8.13066
8.1089
8.09691
8.09103
8.08849
8.08758
8.08742
8.08774
8.08875
8.09126
8.09683
8.10806
8.12847
8.16202
8.21226
8.28154
8.37053
8.47833
8.60291
8.74165
8.89182
9.05084
9.21643
9.38665
9.55983
9.73457
9.90964
10.0839
10.2561
10.425
10.589
10.7458
10.8921
11.0227
11.1301
11.2058
11.2468
11.2619
11.2652
11.265
11.2639
11.2627
11.2613
11.2596
11.2577
11.2551
11.2504
11.2286
11.1163
10.7702
10.3386
10.1097
10.0322
10.0087
10.0021
10.0004
10.0001
</DataArray>
<DataArray Name="hu" type="Float32" format="ascii">
-20.005
-20.0251
-20.1047
-20.3776
-21.2336
-23.6618
-28.696
-33.981
-36.2216
-36.657
-36.7292
-36.7557
-36.7741
-36.7885
-36.8002
-36.81
-36.8176
-36.8158
-36.767
-36.5533
-35.9687
-34.8748
-33.3362
-31.5071
-29.5125
-27.4308
-25.3096
-23.1795
-21.0616
-18.9721
-16.9247
-14.9316
-13.0048
-11.1567
-9.40089
-7.75229
-6.22765
-4.84527
-3.62397
-2.58098
-1.72848
-1.06939
-0.59373
-0.277795
-0.0874944
0.0146938
0.0623352
0.0804
0.084624
0.0837442
0.0828307
0.0867562
0.103591
0.147938
0.243287
0.421821
0.720508
1.17418
1.80856
2.63634
3.65731
4.86136
6.23255
7.75256
9.40297
11.1665
13.0272
14.9707
16.9831
19.0511
21.1607
23.2962
25.439
27.5644
29.6382
31.6085
33.3958
34.883
35.937
36.5059
36.7152
36.7607
36.7585
36.7463
36.7312
36.7131
36.6912
36.6635
36.6278
36.5544
36.2371
34.5695
29.7512
24.1562
21.3254
20.3871
20.1047
20.0248
20.0049
20.0008
</DataArray>
</CellData>
</Piece>
</RectilinearGrid>
</VTKFile>
