<?xml version="1.0"?>
<VTKFile type="RectilinearGrid">
<RectilinearGrid WholeExtent="0 100 0 0 0 0">
<Piece Extent="0 100 0 0 0 0">
<Coordinates>
<DataArray type="Float32" format="ascii">
0
10
20
30
40
50
60
70
80
90
100
110
120
130
140
150
160
170
180
190
200
210
220
230
240
250
260
270
280
290
300
310
320
330
340
350
360
370
380
390
400
410
420
430
440
450
460
470
480
490
500
510
520
530
540
550
560
570
580
590
600
610
620
630
640
650
660
670
680
690
700
710
720
730
740
750
760
770
780
790
800
810
820
830
840
850
860
870
880
890
900
910
920
930
940
950
960
970
980
990
1000
</DataArray>
<DataArray type="Float32" format="ascii">
0
</DataArray>
<DataArray type="Float32" format="ascii">
0
</DataArray>
</Coordinates>
<CellData>
<DataArray Name="h" type="Float32" format="ascii">
10
10
10
10
10.0002
10.001
10.005
10.0197
10.0671
10.2037
10.5277
10.977
11.2195
11.2648
11.2706
11.2725
11.274
11.275
11.2759
11.2766
11.2772
11.2776
11.2773
11.2726
11.2534
11.2021
11.1083
10.9787
10.8253
10.657
10.479
10.2945
10.1057
9.91421
9.72166
9.52951
9.3394
9.15325
8.9734
8.80268
8.64443
8.50232
8.38003
8.28045
8.20487
8.15227
8.11923
8.10086
8.09223
8.08976
8.09206
8.10019
8.11745
8.14857
8.19849
8.27087
8.36721
8.48669
8.62674
8.7839
8.9545
9.13514
9.32281
9.51502
9.70962
9.90476
10.0987
10.2897
10.4759
10.6546
10.8223
10.9735
11.0999
11.1908
11.241
11.2601
11.2645
11.2647
11.2639
11.263
11.2619
11.2606
11.2588
11.2568
11.2537
11.2485
11.2143
11.0279
10.5856
10.2199
10.0692
10.0198
10.005
10.001
10.0002
10
10
10
10
10
</DataArray>
<DataArray Name="hu" type="Float32" format="ascii">
-20
-20
-20
-20.0003
-20.0021
-20.0125
-20.06
-20.2367
-20.8081
-22.4779
-26.5601
-32.5166
-35.9434
-36.6288
-36.706
-36.736
-36.7577
-36.7768
-36.7921
-36.8053
-36.8165
-36.8248
-36.8203
-36.7552
-36.4847
-35.7657
-34.4545
-32.6561
-30.5601
-28.3037
-25.9693
-23.607
-21.2499
-18.9229
-16.646
-14.4376
-12.3159
-10.2995
-8.4091
-6.66705
-5.09762
-3.72541
-2.57232
-1.65248
-0.966051
-0.494638
-0.201614
-0.0389906
0.0423764
0.0854521
0.126826
0.20242
0.353661
0.6284
1.07477
1.73148
2.62046
3.74539
5.0953
6.65025
8.38644
10.2794
12.3059
14.4441
16.6733
18.9735
21.3239
23.7013
26.0773
28.4138
30.6555
32.7167
34.4656
35.7357
36.4386
36.7048
36.7664
36.7667
36.7537
36.7372
36.7183
36.6959
36.6695
36.6367
36.5975
36.5161
36.0231
33.2851
27.3155
22.6777
20.8334
20.2374
20.0593
20.0123
20.002
20.0002
20
20
20
20
</DataArray>
</CellData>
</Piece>
</RectilinearGrid>
</VTKFile>
