<?xml version="1.0"?>
<VTKFile type="RectilinearGrid">
<RectilinearGrid WholeExtent="0 100 0 0 0 0">
<Piece Extent="0 100 0 0 0 0">
<Coordinates>
<DataArray type="Float32" format="ascii">
0
10
20
30
40
50
60
70
80
90
100
110
120
130
140
150
160
170
180
190
200
210
220
230
240
250
260
270
280
290
300
310
320
330
340
350
360
370
380
390
400
410
420
430
440
450
460
470
480
490
500
510
520
530
540
550
560
570
580
590
600
610
620
630
640
650
660
670
680
690
700
710
720
730
740
750
760
770
780
790
800
810
820
830
840
850
860
870
880
890
900
910
920
930
940
950
960
970
980
990
1000
</DataArray>
<DataArray type="Float32" format="ascii">
0
</DataArray>
<DataArray type="Float32" format="ascii">
0
</DataArray>
</Coordinates>
<CellData>
<DataArray Name="h" type="Float32" format="ascii">
10
10
10
10
10
10
10
10
10
10
10
10
10
10
10
10
10
10
10
10
10
10
10
10
10
10
10
10
10
10.0002
10.0017
10.0111
10.0505
10.1679
10.41
10.7412
11.0286
11.1863
11.2435
11.2599
11.3683
11.7384
12.3764
13.1339
13.8452
14.3975
14.7467
14.9185
14.9806
14.9938
14.9809
14.9199
14.7514
14.4091
13.8674
13.1654
12.4052
11.7478
11.3573
11.2417
11.2237
11.165
11.0094
10.7295
10.4047
10.1655
10.0496
10.0108
10.0017
10.0002
10
10
10
10
10
10
10
10
10
10
10
10
10
10
10
10
10
10
10
10
10
10
10
10
10
10
10
10
10
10
</DataArray>
<DataArray Name="hu" type="Float32" format="ascii">
-20
-20
-20
-20
-20
-20
-20
-20
-20
-20
-20
-20
-20
-20
-20
-20
-20
-20
-20
-20
-20
-20
-20
-20
-20
-20
-20
-20
-20.0001
-20.0021
-20.0205
-20.1327
-20.6076
-22.0391
-25.075
-29.3936
-33.3133
-35.5624
-36.4143
-36.6433
-35.8745
-32.8809
-27.3884
-20.3237
-13.0927
-7.04979
-3.02447
-0.983074
-0.227612
-0.000645232
0.223527
0.965637
2.96944
6.91829
12.8503
19.9814
27.0274
32.6062
35.7071
36.4987
36.2386
35.3587
33.1222
29.2701
25.0142
22.0104
20.5963
20.1296
20.02
20.0021
20.0001
20
20
20
20
20
20
20
20
20
20
20
20
20
20
20
20
20
20
20
20
20
20
20
20
20
20
20
20
20
</DataArray>
</CellData>
</Piece>
</RectilinearGrid>
</VTKFile>
