<?xml version="1.0"?>
<VTKFile type="RectilinearGrid">
<RectilinearGrid WholeExtent="0 100 0 0 0 0">
<Piece Extent="0 100 0 0 0 0">
<Coordinates>
<DataArray type="Float32" format="ascii">
0
10
20
30
40
50
60
70
80
90
100
110
120
130
140
150
160
170
180
190
200
210
220
230
240
250
260
270
280
290
300
310
320
330
340
350
360
370
380
390
400
410
420
430
440
450
460
470
480
490
500
510
520
530
540
550
560
570
580
590
600
610
620
630
640
650
660
670
680
690
700
710
720
730
740
750
760
770
780
790
800
810
820
830
840
850
860
870
880
890
900
910
920
930
940
950
960
970
980
990
1000
</DataArray>
<DataArray type="Float32" format="ascii">
0
</DataArray>
<DataArray type="Float32" format="ascii">
0
</DataArray>
</Coordinates>
<CellData>
<DataArray Name="h" type="Float32" format="ascii">
13.9977
13.9959
13.9915
13.9826
13.9663
13.9382
13.893
13.8247
13.7272
13.5954
13.4256
13.2165
12.9683
12.683
12.3642
12.0159
11.6431
11.251
10.8455
10.4333
10.0221
9.62134
9.24248
8.89887
8.60467
8.37213
8.20737
8.10666
8.05641
8.03814
8.03539
8.03784
8.04098
8.04358
8.04556
8.04704
8.04813
8.04888
8.04933
8.04951
8.04945
8.0492
8.04886
8.04841
8.04704
8.0412
8.02161
7.97335
7.88352
7.74251
7.65179
7.22334
6.37369
5.13217
4.10134
3.66073
3.53817
3.50887
3.50205
3.50047
3.5001
3.50002
3.5
3.5
3.5
3.5
3.5
3.5
3.5
3.5
3.5
3.5
3.5
3.5
3.5
3.5
3.5
3.5
3.50001
3.50003
3.50008
3.5002
3.50051
3.50118
3.50256
3.50514
3.50961
3.51665
3.52669
3.53958
3.55435
3.56932
3.58262
3.59286
3.59961
3.60334
3.60504
3.60565
3.60581
3.60584
</DataArray>
<DataArray Name="hu" type="Float32" format="ascii">
0.0133897
0.0488872
0.113492
0.236211
0.459389
0.841041
1.45305
2.37431
3.67962
5.42698
7.64725
10.3393
13.471
16.9855
20.8089
24.8587
29.0493
33.296
37.5169
41.632
45.5627
49.2295
52.5513
55.4468
57.842
59.684
60.964
61.7361
62.1159
62.2482
62.2593
62.2287
62.1914
62.1571
62.1263
62.098
62.0712
62.0452
62.0196
61.9936
61.9667
61.9375
61.9037
61.8611
61.804
61.7272
61.6192
61.3968
60.7111
58.654
53.9899
45.7567
32.0141
15.8885
5.45598
1.84739
0.962721
0.760508
0.713941
0.703162
0.700697
0.700149
0.70003
0.700005
0.7
0.7
0.7
0.7
0.7
0.7
0.7
0.7
0.7
0.7
0.7
0.7
0.699996
0.699983
0.699943
0.699826
0.699505
0.698678
0.696704
0.692336
0.683405
0.666577
0.637486
0.591578
0.525862
0.441154
0.343658
0.244378
0.155807
0.0873387
0.0420876
0.0169648
0.00552907
0.00140698
0.000280089
4.14329e-05
</DataArray>
<DataArray Name="B" type="Float32" format="ascii">
-5
-5
-5
-5
-5
-5
-5
-5
-5
-5
-5
-5
-5
-5
-5
-5
-5
-5
-5
-5
-5
-5
-5
-5
-5
-5
-5
-5
-5
-5
-5
-5
-5
-5
-5
-5
-5
-5
-5
-5
-5
-5
-5
-5
-5
-5
-5
-5
-5
-5
-1
-1
-1
-1
-1
-1
-1
-1
-1
-1
-1
-1
-1
-1
-1
-1
-1
-1
-1
-1
-1
-1
-1
-1
-1
-1
-1
-1
-1
-1
-1
-1
-1
-1
-1
-1
-1
-1
-1
-1
-1
-1
-1
-1
-1
-1
-1
-1
-1
-1
</DataArray>
</CellData>
</Piece>
</RectilinearGrid>
</VTKFile>
