<?xml version="1.0"?>
<VTKFile type="RectilinearGrid">
<RectilinearGrid WholeExtent="0 100 0 0 0 0">
<Piece Extent="0 100 0 0 0 0">
<Coordinates>
<DataArray type="Float32" format="ascii">
0
10
20
30
40
50
60
70
80
90
100
110
120
130
140
150
160
170
180
190
200
210
220
230
240
250
260
270
280
290
300
310
320
330
340
350
360
370
380
390
400
410
420
430
440
450
460
470
480
490
500
510
520
530
540
550
560
570
580
590
600
610
620
630
640
650
660
670
680
690
700
710
720
730
740
750
760
770
780
790
800
810
820
830
840
850
860
870
880
890
900
910
920
930
940
950
960
970
980
990
1000
</DataArray>
<DataArray type="Float32" format="ascii">
0
</DataArray>
<DataArray type="Float32" format="ascii">
0
</DataArray>
</Coordinates>
<CellData>
<DataArray Name="h" type="Float32" format="ascii">
3.24547
3.24563
3.24604
3.24681
3.24815
3.25032
3.25364
3.25848
3.26524
3.27434
3.28621
3.30123
3.31977
3.34211
3.36847
3.39897
3.43366
3.47251
3.51543
3.56225
3.61278
3.6668
3.72406
3.7843
3.84729
3.9128
3.9806
4.05051
4.12237
4.19603
4.27137
4.3483
4.4267
4.50649
4.58755
4.66974
4.75292
4.8369
4.9215
5.00651
5.09171
5.17692
5.26194
5.34664
5.43087
5.51453
5.59754
5.67984
5.7614
5.84236
5.90253
5.97937
6.05867
6.13769
6.21661
6.29557
6.37465
6.45384
6.53302
6.612
6.69047
6.76806
6.84435
6.91897
6.99155
7.06184
7.12966
7.19495
7.25773
7.31806
7.37607
7.43188
7.48563
7.53742
7.58743
7.63607
7.68479
7.73903
7.81906
7.99636
8.48065
9.62148
11.3788
13.0154
14.0306
14.5292
14.7564
14.8647
14.9235
14.9608
14.9878
15.0088
15.0255
15.0388
15.0493
15.0574
15.0635
15.0677
15.0704
15.0718
</DataArray>
<DataArray Name="hu" type="Float32" format="ascii">
0.00712634
0.021399
0.0358441
0.0509674
0.067826
0.0881966
0.114673
0.150664
0.200337
0.268424
0.359963
0.479991
0.633227
0.823772
1.05491
1.32894
1.64717
2.00996
2.4168
2.86652
3.35741
3.88742
4.45426
5.05555
5.68887
6.35179
7.04196
7.75706
8.49486
9.25323
10.0301
10.8237
11.6323
12.4545
13.2892
14.1357
14.9936
15.8627
16.7434
17.636
18.5409
19.4585
20.3893
21.3334
22.2908
23.2613
24.2444
25.2398
26.2465
27.2664
28.3152
29.3549
30.372
31.382
32.3838
33.3766
34.3597
35.333
36.2966
37.251
38.1971
39.1362
40.0695
40.998
41.9226
42.8434
43.76
44.6717
45.5768
46.4734
47.3595
48.2327
49.0907
49.9311
50.7513
51.5476
52.3121
53.0199
53.5813
53.6579
52.0065
45.4068
31.6816
16.2895
5.90644
0.96233
-0.875618
-1.35814
-1.33024
-1.13962
-0.918736
-0.714462
-0.540827
-0.399558
-0.287916
-0.2016
-0.135865
-0.0859467
-0.047171
-0.0149949
</DataArray>
<DataArray Name="B" type="Float32" format="ascii">
-5
-5
-5
-5
-5
-5
-5
-5
-5
-5
-5
-5
-5
-5
-5
-5
-5
-5
-5
-5
-5
-5
-5
-5
-5
-5
-5
-5
-5
-5
-5
-5
-5
-5
-5
-5
-5
-5
-5
-5
-5
-5
-5
-5
-5
-5
-5
-5
-5
-5
-1
-1
-1
-1
-1
-1
-1
-1
-1
-1
-1
-1
-1
-1
-1
-1
-1
-1
-1
-1
-1
-1
-1
-1
-1
-1
-1
-1
-1
-1
-1
-1
-1
-1
-1
-1
-1
-1
-1
-1
-1
-1
-1
-1
-1
-1
-1
-1
-1
-1
</DataArray>
</CellData>
</Piece>
</RectilinearGrid>
</VTKFile>
