<?xml version="1.0"?>
<VTKFile type="RectilinearGrid">
<RectilinearGrid WholeExtent="0 100 0 0 0 0">
<Piece Extent="0 100 0 0 0 0">
<Coordinates>
<DataArray type="Float32" format="ascii">
0
10
20
30
40
50
60
70
80
90
100
110
120
130
140
150
160
170
180
190
200
210
220
230
240
250
260
270
280
290
300
310
320
330
340
350
360
370
380
390
400
410
420
430
440
450
460
470
480
490
500
510
520
530
540
550
560
570
580
590
600
610
620
630
640
650
660
670
680
690
700
710
720
730
740
750
760
770
780
790
800
810
820
830
840
850
860
870
880
890
900
910
920
930
940
950
960
970
980
990
1000
</DataArray>
<DataArray type="Float32" format="ascii">
0
</DataArray>
<DataArray type="Float32" format="ascii">
0
</DataArray>
</Coordinates>
<CellData>
<DataArray Name="h" type="Float32" format="ascii">
6.49755
6.49675
6.49511
6.49258
6.4891
6.48456
6.47888
6.47197
6.46376
6.45418
6.44324
6.43097
6.41746
6.40285
6.38736
6.37122
6.35473
6.33818
6.32189
6.30613
6.29118
6.27725
6.26449
6.25302
6.24288
6.23408
6.22658
6.2203
6.21516
6.21103
6.20781
6.20538
6.20362
6.20244
6.20174
6.20144
6.20146
6.20175
6.20226
6.20296
6.2038
6.20477
6.20584
6.20701
6.20826
6.20958
6.21098
6.21245
6.214
6.21456
6.20452
6.19311
6.18286
6.17245
6.16189
6.15121
6.14044
6.12959
6.1187
6.1078
6.09691
6.08607
6.07533
6.06473
6.05431
6.04412
6.03422
6.02465
6.01547
6.00675
5.99852
5.99086
5.98382
5.97747
5.97186
5.96707
5.96323
5.96064
5.96035
5.96627
5.99333
6.09635
6.44295
7.32109
8.68774
9.91453
10.6199
10.9316
11.0546
11.1021
11.1211
11.1296
11.134
11.1369
11.1391
11.1407
11.142
11.143
11.1436
11.1439
</DataArray>
<DataArray Name="hu" type="Float32" format="ascii">
0.222147
0.665372
1.10537
1.54002
1.96723
2.385
2.79147
3.18498
3.56419
3.92815
4.27641
4.60911
4.92705
5.2317
5.52515
5.8101
6.08963
6.36712
6.64596
6.9294
7.22038
7.52134
7.83419
8.16021
8.50007
8.85392
9.22145
9.60195
9.99447
10.3979
10.8109
11.2323
11.6609
12.0956
12.5353
12.9791
13.4262
13.8759
14.3276
14.7809
15.2354
15.6907
16.1465
16.6028
17.0593
17.5158
17.9723
18.4287
18.8849
19.3276
19.7729
20.2354
20.6886
21.1406
21.5913
22.0407
22.4884
22.9346
23.3788
23.8211
24.2611
24.6989
25.134
25.5664
25.9958
26.422
26.8448
27.264
27.6793
28.0905
28.4974
28.8998
29.2974
29.6902
30.0777
30.4599
30.8361
31.2052
31.5628
31.8922
32.1288
32.019
30.6189
25.4836
15.1498
4.15996
-2.64703
-5.48021
-6.23694
-6.1355
-5.70995
-5.16609
-4.57946
-3.9772
-3.36896
-2.75822
-2.14626
-1.53354
-0.920331
-0.306812
</DataArray>
<DataArray Name="B" type="Float32" format="ascii">
-5
-5
-5
-5
-5
-5
-5
-5
-5
-5
-5
-5
-5
-5
-5
-5
-5
-5
-5
-5
-5
-5
-5
-5
-5
-5
-5
-5
-5
-5
-5
-5
-5
-5
-5
-5
-5
-5
-5
-5
-5
-5
-5
-5
-5
-5
-5
-5
-5
-5
-1
-1
-1
-1
-1
-1
-1
-1
-1
-1
-1
-1
-1
-1
-1
-1
-1
-1
-1
-1
-1
-1
-1
-1
-1
-1
-1
-1
-1
-1
-1
-1
-1
-1
-1
-1
-1
-1
-1
-1
-1
-1
-1
-1
-1
-1
-1
-1
-1
-1
</DataArray>
</CellData>
</Piece>
</RectilinearGrid>
</VTKFile>
