<?xml version="1.0"?>
<VTKFile type="RectilinearGrid">
<RectilinearGrid WholeExtent="0 100 0 0 0 0">
<Piece Extent="0 100 0 0 0 0">
<Coordinates>
<DataArray type="Float32" format="ascii">
0
10
20
30
40
50
60
70
80
90
100
110
120
130
140
150
160
170
180
190
200
210
220
230
240
250
260
270
280
290
300
310
320
330
340
350
360
370
380
390
400
410
420
430
440
450
460
470
480
490
500
510
520
530
540
550
560
570
580
590
600
610
620
630
640
650
660
670
680
690
700
710
720
730
740
750
760
770
780
790
800
810
820
830
840
850
860
870
880
890
900
910
920
930
940
950
960
970
980
990
1000
</DataArray>
<DataArray type="Float32" format="ascii">
0
</DataArray>
<DataArray type="Float32" format="ascii">
0
</DataArray>
</Coordinates>
<CellData>
<DataArray Name="h" type="Float32" format="ascii">
3.24637
3.24642
3.24651
3.24664
3.24681
3.24701
3.24723
3.24747
3.24775
3.24808
3.24851
3.24911
3.24999
3.25129
3.25322
3.25602
3.25999
3.26547
3.27284
3.28248
3.29478
3.31008
3.32871
3.3509
3.37681
3.40652
3.44003
3.47724
3.51801
3.56211
3.6093
3.6593
3.71183
3.76658
3.8233
3.88173
3.94164
4.00282
4.06509
4.12829
4.19228
4.25695
4.32221
4.38796
4.45414
4.52069
4.58756
4.6547
4.72206
4.78959
4.8491
4.92826
5.01276
5.09685
5.18038
5.26315
5.34492
5.42545
5.50454
5.58205
5.65786
5.73194
5.80434
5.87519
5.9448
6.01416
6.08674
6.17568
6.33046
6.71381
7.66078
9.2721
10.9151
12.0031
12.5752
12.8713
13.0474
13.1747
13.2821
13.3808
13.475
13.5663
13.6553
13.742
13.8263
13.908
13.9869
14.0626
14.1348
14.203
14.267
14.3263
14.3804
14.4289
14.4714
14.5074
14.5367
14.559
14.574
14.5815
</DataArray>
<DataArray Name="hu" type="Float32" format="ascii">
-0.00587517
-0.0171976
-0.0272706
-0.0353858
-0.0410159
-0.043843
-0.0437638
-0.0408559
-0.0353083
-0.0273666
-0.0172297
-0.00491939
0.00980039
0.0274887
0.0491144
0.0760946
0.110269
0.153876
0.20947
0.27979
0.367649
0.475806
0.606844
0.763069
0.946434
1.15852
1.40053
1.6733
1.97731
2.31277
2.67958
3.07742
3.50574
3.9638
4.4507
4.96543
5.50684
6.07373
6.66484
7.27887
7.91456
8.57063
9.24587
9.93909
10.6492
11.375
12.1157
12.8703
13.6379
14.4177
15.236
16.0563
16.8434
17.6298
18.4166
19.2048
19.996
20.7912
21.5916
22.398
23.2109
24.0304
24.8561
25.6873
26.5223
27.356
28.1719
28.9064
29.3086
28.405
23.3253
11.0749
-4.16843
-15.0013
-20.0962
-21.7264
-21.7864
-21.2091
-20.3837
-19.4644
-18.5112
-17.5476
-16.5828
-15.6205
-14.6619
-13.7075
-12.7574
-11.811
-10.8679
-9.92706
-8.98772
-8.04882
-7.1094
-6.1686
-5.22578
-4.28051
-3.33269
-2.38247
-1.43033
-0.476923
</DataArray>
<DataArray Name="B" type="Float32" format="ascii">
-5
-5
-5
-5
-5
-5
-5
-5
-5
-5
-5
-5
-5
-5
-5
-5
-5
-5
-5
-5
-5
-5
-5
-5
-5
-5
-5
-5
-5
-5
-5
-5
-5
-5
-5
-5
-5
-5
-5
-5
-5
-5
-5
-5
-5
-5
-5
-5
-5
-5
-1
-1
-1
-1
-1
-1
-1
-1
-1
-1
-1
-1
-1
-1
-1
-1
-1
-1
-1
-1
-1
-1
-1
-1
-1
-1
-1
-1
-1
-1
-1
-1
-1
-1
-1
-1
-1
-1
-1
-1
-1
-1
-1
-1
-1
-1
-1
-1
-1
-1
</DataArray>
</CellData>
</Piece>
</RectilinearGrid>
</VTKFile>
