<?xml version="1.0"?>
<VTKFile type="RectilinearGrid">
<RectilinearGrid WholeExtent="0 100 0 0 0 0">
<Piece Extent="0 100 0 0 0 0">
<Coordinates>
<DataArray type="Float32" format="ascii">
0
10
20
30
40
50
60
70
80
90
100
110
120
130
140
150
160
170
180
190
200
210
220
230
240
250
260
270
280
290
300
310
320
330
340
350
360
370
380
390
400
410
420
430
440
450
460
470
480
490
500
510
520
530
540
550
560
570
580
590
600
610
620
630
640
650
660
670
680
690
700
710
720
730
740
750
760
770
780
790
800
810
820
830
840
850
860
870
880
890
900
910
920
930
940
950
960
970
980
990
1000
</DataArray>
<DataArray type="Float32" format="ascii">
0
</DataArray>
<DataArray type="Float32" format="ascii">
0
</DataArray>
</Coordinates>
<CellData>
<DataArray Name="h" type="Float32" format="ascii">
7.36979
7.37064
7.37239
7.3752
7.37926
7.38484
7.39224
7.40176
7.4137
7.42828
7.44564
7.46574
7.48837
7.51311
7.53936
7.56635
7.59325
7.61919
7.64343
7.66536
7.68456
7.70087
7.7143
7.72503
7.73337
7.73968
7.74435
7.74776
7.75023
7.75203
7.75337
7.75442
7.75529
7.75604
7.75673
7.75738
7.75801
7.75864
7.75925
7.75985
7.76045
7.76103
7.7616
7.76216
7.76271
7.76323
7.76374
7.76423
7.76469
7.76401
7.75176
7.73798
7.72507
7.71178
7.6981
7.68404
7.66957
7.65471
7.63945
7.62377
7.6077
7.59122
7.57434
7.55706
7.5394
7.52136
7.50297
7.48424
7.46518
7.44582
7.42617
7.40628
7.38621
7.36601
7.34573
7.32539
7.30497
7.28444
7.26368
7.24231
7.21927
7.19162
7.15159
7.07892
6.92211
6.56094
5.78994
4.56785
3.55543
3.15561
3.04938
3.01747
3.00166
2.99009
2.98051
2.97252
2.96608
2.96122
2.95796
2.95632
</DataArray>
<DataArray Name="hu" type="Float32" format="ascii">
0.280508
0.840113
1.39544
1.94347
2.48097
3.00451
3.51054
3.99558
4.45651
4.89093
5.29767
5.67713
6.03171
6.3659
6.6862
7.00067
7.31821
7.64768
7.99702
8.37243
8.77792
9.21518
9.68373
10.1813
10.7045
11.2491
11.8109
12.3859
12.9705
13.5618
14.1575
14.7559
15.3559
15.9566
16.5575
17.1582
17.7587
18.3588
18.9584
19.5574
20.1559
20.7539
21.3512
21.948
22.5441
23.1396
23.7344
24.3286
24.922
25.4994
26.0795
26.6786
27.2678
27.8558
28.4426
29.0281
29.6124
30.1954
30.777
31.3571
31.9357
32.5127
33.088
33.6614
34.2329
34.8023
35.3693
35.934
36.4959
37.0551
37.6112
38.1639
38.7129
39.2578
39.798
40.3331
40.8624
41.3842
41.895
42.386
42.8359
43.1913
43.3144
42.851
40.9267
35.6935
24.9354
11.0254
2.1819
-0.455492
-0.909657
-0.900983
-0.805281
-0.695025
-0.583969
-0.474554
-0.366978
-0.260963
-0.156104
-0.0519551
</DataArray>
<DataArray Name="B" type="Float32" format="ascii">
-5
-5
-5
-5
-5
-5
-5
-5
-5
-5
-5
-5
-5
-5
-5
-5
-5
-5
-5
-5
-5
-5
-5
-5
-5
-5
-5
-5
-5
-5
-5
-5
-5
-5
-5
-5
-5
-5
-5
-5
-5
-5
-5
-5
-5
-5
-5
-5
-5
-5
-1
-1
-1
-1
-1
-1
-1
-1
-1
-1
-1
-1
-1
-1
-1
-1
-1
-1
-1
-1
-1
-1
-1
-1
-1
-1
-1
-1
-1
-1
-1
-1
-1
-1
-1
-1
-1
-1
-1
-1
-1
-1
-1
-1
-1
-1
-1
-1
-1
-1
</DataArray>
</CellData>
</Piece>
</RectilinearGrid>
</VTKFile>
