<?xml version="1.0"?>
<VTKFile type="RectilinearGrid">
<RectilinearGrid WholeExtent="0 100 0 0 0 0">
<Piece Extent="0 100 0 0 0 0">
<Coordinates>
<DataArray type="Float32" format="ascii">
0
10
20
30
40
50
60
70
80
90
100
110
120
130
140
150
160
170
180
190
200
210
220
230
240
250
260
270
280
290
300
310
320
330
340
350
360
370
380
390
400
410
420
430
440
450
460
470
480
490
500
510
520
530
540
550
560
570
580
590
600
610
620
630
640
650
660
670
680
690
700
710
720
730
740
750
760
770
780
790
800
810
820
830
840
850
860
870
880
890
900
910
920
930
940
950
960
970
980
990
1000
</DataArray>
<DataArray type="Float32" format="ascii">
0
</DataArray>
<DataArray type="Float32" format="ascii">
0
</DataArray>
</Coordinates>
<CellData>
<DataArray Name="h" type="Float32" format="ascii">
5.5593
5.55932
5.55936
5.55943
5.55952
5.55963
5.55976
5.55992
5.56009
5.56028
5.56049
5.56072
5.56096
5.5612
5.56144
5.56166
5.56186
5.56202
5.5621
5.5621
5.56198
5.56169
5.5612
5.56045
5.55939
5.55796
5.55608
5.5537
5.55074
5.54713
5.54282
5.53775
5.53189
5.5252
5.51771
5.50942
5.5004
5.49073
5.4805
5.46987
5.45898
5.448
5.43712
5.42651
5.41635
5.40679
5.39799
5.39005
5.38307
5.37621
5.36184
5.34589
5.33194
5.31915
5.30746
5.29682
5.2872
5.27859
5.2711
5.26534
5.26369
5.27534
5.33445
5.55321
6.17451
7.30626
8.48775
9.23646
9.58046
9.71828
9.77278
9.79603
9.80768
9.81491
9.82037
9.82504
9.8293
9.83328
9.83706
9.84064
9.84404
9.84727
9.85034
9.85323
9.85595
9.85849
9.86086
9.86305
9.86506
9.8669
9.86857
9.87007
9.87141
9.87257
9.87358
9.87441
9.87508
9.87558
9.87592
9.87608
</DataArray>
<DataArray Name="hu" type="Float32" format="ascii">
0.197175
0.591526
0.985872
1.38021
1.77455
2.16887
2.56318
2.95744
3.35167
3.74583
4.13988
4.53379
4.9275
5.32092
5.71397
6.10649
6.49833
6.88926
7.27902
7.66727
8.05362
8.4376
8.81865
9.19615
9.56939
9.9376
10.2999
10.6555
11.0034
11.3428
11.6728
11.9928
12.302
12.6002
12.8872
13.1631
13.4284
13.6839
13.9307
14.1701
14.404
14.634
14.8621
15.0903
15.3204
15.5542
15.7931
16.0384
16.2908
16.5401
16.7968
17.0765
17.3599
17.6514
17.9499
18.2545
18.5641
18.8774
19.1925
19.5053
19.803
20.0393
20.0398
19.16
15.5315
7.0561
-3.54368
-10.9681
-14.3322
-15.377
-15.4421
-15.1351
-14.6901
-14.1935
-13.677
-13.1523
-12.624
-12.0937
-11.5622
-11.0296
-10.4961
-9.96187
-9.42688
-8.89121
-8.35495
-7.81816
-7.28092
-6.74329
-6.20529
-5.66695
-5.12828
-4.58928
-4.04999
-3.51045
-2.9707
-2.43078
-1.89073
-1.35059
-0.810378
-0.27013
</DataArray>
<DataArray Name="B" type="Float32" format="ascii">
-5
-5
-5
-5
-5
-5
-5
-5
-5
-5
-5
-5
-5
-5
-5
-5
-5
-5
-5
-5
-5
-5
-5
-5
-5
-5
-5
-5
-5
-5
-5
-5
-5
-5
-5
-5
-5
-5
-5
-5
-5
-5
-5
-5
-5
-5
-5
-5
-5
-5
-1
-1
-1
-1
-1
-1
-1
-1
-1
-1
-1
-1
-1
-1
-1
-1
-1
-1
-1
-1
-1
-1
-1
-1
-1
-1
-1
-1
-1
-1
-1
-1
-1
-1
-1
-1
-1
-1
-1
-1
-1
-1
-1
-1
-1
-1
-1
-1
-1
-1
</DataArray>
</CellData>
</Piece>
</RectilinearGrid>
</VTKFile>
