<?xml version="1.0"?>
<VTKFile type="RectilinearGrid">
<RectilinearGrid WholeExtent="0 100 0 0 0 0">
<Piece Extent="0 100 0 0 0 0">
<Coordinates>
<DataArray type="Float32" format="ascii">
0
10
20
30
40
50
60
70
80
90
100
110
120
130
140
150
160
170
180
190
200
210
220
230
240
250
260
270
280
290
300
310
320
330
340
350
360
370
380
390
400
410
420
430
440
450
460
470
480
490
500
510
520
530
540
550
560
570
580
590
600
610
620
630
640
650
660
670
680
690
700
710
720
730
740
750
760
770
780
790
800
810
820
830
840
850
860
870
880
890
900
910
920
930
940
950
960
970
980
990
1000
</DataArray>
<DataArray type="Float32" format="ascii">
0
</DataArray>
<DataArray type="Float32" format="ascii">
0
</DataArray>
</Coordinates>
<CellData>
<DataArray Name="h" type="Float32" format="ascii">
8.68073
8.68071
8.68067
8.68062
8.68054
8.68045
8.68035
8.68022
8.68008
8.67992
8.67974
8.67955
8.67933
8.67911
8.67887
8.67861
8.67834
8.67805
8.67776
8.67746
8.67717
8.67693
8.67676
8.67677
8.67711
8.67802
8.67986
8.68319
8.68873
8.69737
8.7101
8.72789
8.75142
8.78087
8.81572
8.85461
8.89546
8.9357
8.9728
9.00465
9.02999
9.04847
9.06065
9.06762
9.07072
9.07122
9.07012
9.0681
9.06557
9.06156
9.04554
9.02739
9.00983
8.9917
8.97294
8.95334
8.93251
8.90948
8.88182
8.84338
8.77811
8.64401
8.33767
7.65314
6.41225
5.0484
4.29695
4.0436
3.96013
3.91854
3.88673
3.85747
3.82913
3.80132
3.77391
3.74688
3.7202
3.69386
3.66789
3.64231
3.61718
3.59255
3.56849
3.54509
3.52245
3.50064
3.47979
3.45997
3.4413
3.42387
3.40775
3.39303
3.37978
3.36806
3.35792
3.34941
3.34256
3.3374
3.33395
3.33222
</DataArray>
<DataArray Name="hu" type="Float32" format="ascii">
0.360562
1.08166
1.80268
2.52354
3.24419
3.96459
4.68465
5.40433
6.12358
6.84233
7.56053
8.27813
8.99506
9.71128
10.4267
11.1414
11.8551
12.5679
13.2796
13.9902
14.6994
15.4069
16.1122
16.8142
17.5114
18.2014
18.8802
19.5424
20.1808
20.7866
21.3499
21.8615
22.3146
22.7076
23.046
23.3434
23.6208
23.9038
24.218
24.5844
25.0155
25.5142
26.0745
26.6845
27.3302
27.9984
28.6786
29.3638
30.0496
30.7168
31.3846
32.0702
32.743
33.4106
34.0719
34.7242
35.3616
35.9698
36.5129
36.8988
36.8859
35.8525
32.3406
23.9025
10.2046
-1.81116
-6.83124
-7.95572
-8.0297
-7.87039
-7.65837
-7.43288
-7.20269
-6.96993
-6.73524
-6.49887
-6.26099
-6.02164
-5.78086
-5.53858
-5.29468
-5.04902
-4.80137
-4.55151
-4.29917
-4.04412
-3.7861
-3.52491
-3.26037
-2.99238
-2.72087
-2.44587
-2.16747
-1.88585
-1.60125
-1.314
-1.02447
-0.733111
-0.440413
-0.146896
</DataArray>
<DataArray Name="B" type="Float32" format="ascii">
-5
-5
-5
-5
-5
-5
-5
-5
-5
-5
-5
-5
-5
-5
-5
-5
-5
-5
-5
-5
-5
-5
-5
-5
-5
-5
-5
-5
-5
-5
-5
-5
-5
-5
-5
-5
-5
-5
-5
-5
-5
-5
-5
-5
-5
-5
-5
-5
-5
-5
-1
-1
-1
-1
-1
-1
-1
-1
-1
-1
-1
-1
-1
-1
-1
-1
-1
-1
-1
-1
-1
-1
-1
-1
-1
-1
-1
-1
-1
-1
-1
-1
-1
-1
-1
-1
-1
-1
-1
-1
-1
-1
-1
-1
-1
-1
-1
-1
-1
-1
</DataArray>
</CellData>
</Piece>
</RectilinearGrid>
</VTKFile>
