<?xml version="1.0"?>
<VTKFile type="RectilinearGrid">
<RectilinearGrid WholeExtent="0 100 0 0 0 0">
<Piece Extent="0 100 0 0 0 0">
<Coordinates>
<DataArray type="Float32" format="ascii">
0
10
20
30
40
50
60
70
80
90
100
110
120
130
140
150
160
170
180
190
200
210
220
230
240
250
260
270
280
290
300
310
320
330
340
350
360
370
380
390
400
410
420
430
440
450
460
470
480
490
500
510
520
530
540
550
560
570
580
590
600
610
620
630
640
650
660
670
680
690
700
710
720
730
740
750
760
770
780
790
800
810
820
830
840
850
860
870
880
890
900
910
920
930
940
950
960
970
980
990
1000
</DataArray>
<DataArray type="Float32" format="ascii">
0
</DataArray>
<DataArray type="Float32" format="ascii">
0
</DataArray>
</Coordinates>
<CellData>
<DataArray Name="h" type="Float32" format="ascii">
8.90623
8.90619
8.90612
8.90601
8.90586
8.90567
8.90545
8.90519
8.90489
8.90456
8.9042
8.9038
8.90337
8.9029
8.9024
8.90186
8.9013
8.90069
8.90006
8.89939
8.89869
8.89795
8.89719
8.8964
8.8956
8.89482
8.89412
8.89359
8.89343
8.89395
8.89566
8.89928
8.9058
8.91642
8.93239
8.95477
8.98405
9.01991
9.06092
9.10467
9.14806
9.18785
9.22138
9.24702
9.26447
9.2746
9.27902
9.27949
9.27755
9.27306
9.25612
9.23641
9.21675
9.19564
9.17183
9.14221
9.09896
9.02173
8.85799
8.48206
7.66701
6.30986
5.0209
4.39489
4.18994
4.11725
4.07713
4.04493
4.01499
3.98597
3.95753
3.92955
3.90198
3.87478
3.84791
3.82137
3.79516
3.7693
3.74383
3.71879
3.69426
3.67029
3.64699
3.62443
3.60272
3.58193
3.56216
3.54351
3.52603
3.50982
3.49493
3.48141
3.46931
3.45866
3.4495
3.44184
3.4357
3.43108
3.428
3.42646
</DataArray>
<DataArray Name="hu" type="Float32" format="ascii">
0.372004
1.11598
1.85987
2.6036
3.3471
4.09031
4.83316
5.57558
6.31752
7.05892
7.79971
8.53982
9.27919
10.0178
10.7555
11.4923
12.2281
12.9628
13.6964
14.4289
15.1601
15.8899
16.6183
17.3452
18.0702
18.7931
19.5132
20.2293
20.9395
21.6405
22.3273
22.9926
23.6265
24.2172
24.7527
25.2226
25.6219
25.9543
26.2337
26.4841
26.7365
27.0231
27.3706
27.7948
28.2982
28.8712
29.4971
30.157
30.8352
31.5031
32.174
32.8622
33.5321
34.1836
34.7984
35.3311
35.6664
35.5055
34.0897
29.7172
19.943
5.81202
-4.79646
-8.64842
-9.42975
-9.42822
-9.24969
-9.02939
-8.79755
-8.56114
-8.32194
-8.08053
-7.83717
-7.59205
-7.34525
-7.09683
-6.84675
-6.59491
-6.34114
-6.08521
-5.82683
-5.56568
-5.3014
-5.03363
-4.76202
-4.48625
-4.20603
-3.92113
-3.63138
-3.33671
-3.03712
-2.7327
-2.42365
-2.11025
-1.79288
-1.47198
-1.1481
-0.82183
-0.493809
-0.164723
</DataArray>
<DataArray Name="B" type="Float32" format="ascii">
-5
-5
-5
-5
-5
-5
-5
-5
-5
-5
-5
-5
-5
-5
-5
-5
-5
-5
-5
-5
-5
-5
-5
-5
-5
-5
-5
-5
-5
-5
-5
-5
-5
-5
-5
-5
-5
-5
-5
-5
-5
-5
-5
-5
-5
-5
-5
-5
-5
-5
-1
-1
-1
-1
-1
-1
-1
-1
-1
-1
-1
-1
-1
-1
-1
-1
-1
-1
-1
-1
-1
-1
-1
-1
-1
-1
-1
-1
-1
-1
-1
-1
-1
-1
-1
-1
-1
-1
-1
-1
-1
-1
-1
-1
-1
-1
-1
-1
-1
-1
</DataArray>
</CellData>
</Piece>
</RectilinearGrid>
</VTKFile>
