<?xml version="1.0"?>
<VTKFile type="RectilinearGrid">
<RectilinearGrid WholeExtent="0 100 0 0 0 0">
<Piece Extent="0 100 0 0 0 0">
<Coordinates>
<DataArray type="Float32" format="ascii">
0
10
20
30
40
50
60
70
80
90
100
110
120
130
140
150
160
170
180
190
200
210
220
230
240
250
260
270
280
290
300
310
320
330
340
350
360
370
380
390
400
410
420
430
440
450
460
470
480
490
500
510
520
530
540
550
560
570
580
590
600
610
620
630
640
650
660
670
680
690
700
710
720
730
740
750
760
770
780
790
800
810
820
830
840
850
860
870
880
890
900
910
920
930
940
950
960
970
980
990
1000
</DataArray>
<DataArray type="Float32" format="ascii">
0
</DataArray>
<DataArray type="Float32" format="ascii">
0
</DataArray>
</Coordinates>
<CellData>
<DataArray Name="h" type="Float32" format="ascii">
11.1018
11.1014
11.1007
11.0995
11.098
11.0961
11.0938
11.091
11.0879
11.0844
11.0804
11.076
11.0712
11.0659
11.0602
11.0539
11.0472
11.0399
11.0321
11.0237
11.0147
11.005
10.9942
10.9821
10.9675
10.9484
10.9198
10.8714
10.7806
10.6009
10.247
9.60319
8.62734
7.52626
6.65332
6.14062
5.88588
5.76149
5.69323
5.64755
5.61069
5.57723
5.54507
5.51342
5.48201
5.45074
5.41963
5.38869
5.35795
5.32657
5.29909
5.26556
5.23253
5.20034
5.16896
5.13829
5.10827
5.0788
5.04979
5.02119
4.99293
4.96501
4.93741
4.91017
4.88333
4.85698
4.83121
4.80613
4.78187
4.75858
4.73641
4.7155
4.69599
4.67804
4.66175
4.64723
4.63458
4.62384
4.61504
4.60817
4.6032
4.60005
4.59861
4.59875
4.60029
4.60305
4.60684
4.61144
4.61663
4.62221
4.62798
4.63374
4.63932
4.64455
4.6493
4.65345
4.65689
4.65954
4.66134
4.66225
</DataArray>
<DataArray Name="hu" type="Float32" format="ascii">
0.464009
1.39188
2.31931
3.24602
4.1717
5.09604
6.01869
6.93933
7.85759
8.77314
9.68565
10.5947
11.5001
12.4013
13.2981
14.19
15.0765
15.9573
16.8316
17.6989
18.5582
19.4078
20.2443
21.0611
21.8438
22.5611
23.1449
23.4469
23.1491
21.6093
17.7094
10.1597
-0.897361
-12.2423
-20.138
-24.0775
-25.5976
-26.0036
-25.9527
-25.7233
-25.4264
-25.1055
-24.7771
-24.4477
-24.1194
-23.793
-23.4686
-23.1458
-22.8247
-22.5121
-22.2022
-21.8832
-21.5555
-21.2243
-20.8898
-20.5524
-20.2125
-19.8705
-19.5267
-19.1816
-18.8353
-18.4879
-18.1395
-17.7897
-17.4384
-17.085
-16.7292
-16.3701
-16.007
-15.6391
-15.2656
-14.8855
-14.4979
-14.1018
-13.6964
-13.2809
-12.8546
-12.4167
-11.9669
-11.5047
-11.0299
-10.5425
-10.0427
-9.53083
-9.00731
-8.47279
-7.92803
-7.37385
-6.81114
-6.24084
-5.66386
-5.0811
-4.49344
-3.90167
-3.30654
-2.70872
-2.10881
-1.50735
-0.904824
-0.301675
</DataArray>
<DataArray Name="B" type="Float32" format="ascii">
-5
-5
-5
-5
-5
-5
-5
-5
-5
-5
-5
-5
-5
-5
-5
-5
-5
-5
-5
-5
-5
-5
-5
-5
-5
-5
-5
-5
-5
-5
-5
-5
-5
-5
-5
-5
-5
-5
-5
-5
-5
-5
-5
-5
-5
-5
-5
-5
-5
-5
-1
-1
-1
-1
-1
-1
-1
-1
-1
-1
-1
-1
-1
-1
-1
-1
-1
-1
-1
-1
-1
-1
-1
-1
-1
-1
-1
-1
-1
-1
-1
-1
-1
-1
-1
-1
-1
-1
-1
-1
-1
-1
-1
-1
-1
-1
-1
-1
-1
-1
</DataArray>
</CellData>
</Piece>
</RectilinearGrid>
</VTKFile>
