<?xml version="1.0"?>
<VTKFile type="RectilinearGrid">
<RectilinearGrid WholeExtent="0 100 0 0 0 0">
<Piece Extent="0 100 0 0 0 0">
<Coordinates>
<DataArray type="Float32" format="ascii">
0
10
20
30
40
50
60
70
80
90
100
110
120
130
140
150
160
170
180
190
200
210
220
230
240
250
260
270
280
290
300
310
320
330
340
350
360
370
380
390
400
410
420
430
440
450
460
470
480
490
500
510
520
530
540
550
560
570
580
590
600
610
620
630
640
650
660
670
680
690
700
710
720
730
740
750
760
770
780
790
800
810
820
830
840
850
860
870
880
890
900
910
920
930
940
950
960
970
980
990
1000
</DataArray>
<DataArray type="Float32" format="ascii">
0
</DataArray>
<DataArray type="Float32" format="ascii">
0
</DataArray>
</Coordinates>
<CellData>
<DataArray Name="h" type="Float32" format="ascii">
3.25401
3.25496
3.25703
3.26055
3.26597
3.27384
3.28478
3.29938
3.3182
3.34169
3.37021
3.40391
3.44285
3.48689
3.53581
3.58929
3.64693
3.70832
3.77304
3.8407
3.91094
3.98342
4.05788
4.13407
4.21178
4.29084
4.37109
4.45239
4.53463
4.61769
4.70152
4.78604
4.87121
4.95703
5.04349
5.13058
5.21833
5.30671
5.3957
5.48521
5.57513
5.6653
5.75552
5.84558
5.93525
6.02433
6.1126
6.19991
6.28611
6.37141
6.43115
6.50575
6.58073
6.65483
6.72823
6.8011
6.8736
6.9459
7.01806
7.0901
7.16191
7.23325
7.30379
7.37306
7.44055
7.50574
7.56815
7.62741
7.68323
7.73549
7.78416
7.82931
7.87107
7.9096
7.94506
7.9776
8.00737
8.03448
8.05909
8.08148
8.10252
8.12524
8.16104
8.25121
8.53095
9.31559
10.8459
12.6355
13.9302
14.5987
14.8855
14.9985
15.0417
15.0584
15.0652
15.0684
15.07
15.071
15.0715
15.0718
</DataArray>
<DataArray Name="hu" type="Float32" format="ascii">
0.0128736
0.040969
0.0761429
0.123216
0.187108
0.272779
0.385118
0.528747
0.707837
0.925992
1.1861
1.49031
1.84004
2.23603
2.67841
3.16678
3.70027
4.27761
4.89714
5.55693
6.25479
6.98838
7.75524
8.55295
9.37912
10.2315
11.1079
12.0065
12.9254
13.8629
14.8173
15.7872
16.7708
17.7667
18.7732
19.7888
20.8121
21.8419
22.8772
23.9175
24.9625
26.0124
27.0674
28.1281
29.195
30.2686
31.349
32.436
33.5294
34.6331
35.7561
36.862
37.9499
39.0261
40.089
41.137
42.1682
43.181
44.1736
45.1448
46.0936
47.0196
47.9227
48.8033
49.662
50.4992
51.3151
52.1094
52.8811
53.6287
54.3501
55.0427
55.704
56.3314
56.9225
57.4754
57.9884
58.4608
58.8917
59.2806
59.6251
59.9141
60.1023
60.0105
58.9446
54.6226
43.3956
26.9909
13.254
5.57415
2.18477
0.86035
0.373485
0.197424
0.12928
0.0959303
0.0726475
0.0517285
0.0311053
0.0103905
</DataArray>
<DataArray Name="B" type="Float32" format="ascii">
-5
-5
-5
-5
-5
-5
-5
-5
-5
-5
-5
-5
-5
-5
-5
-5
-5
-5
-5
-5
-5
-5
-5
-5
-5
-5
-5
-5
-5
-5
-5
-5
-5
-5
-5
-5
-5
-5
-5
-5
-5
-5
-5
-5
-5
-5
-5
-5
-5
-5
-1
-1
-1
-1
-1
-1
-1
-1
-1
-1
-1
-1
-1
-1
-1
-1
-1
-1
-1
-1
-1
-1
-1
-1
-1
-1
-1
-1
-1
-1
-1
-1
-1
-1
-1
-1
-1
-1
-1
-1
-1
-1
-1
-1
-1
-1
-1
-1
-1
-1
</DataArray>
</CellData>
</Piece>
</RectilinearGrid>
</VTKFile>
