<?xml version="1.0"?>
<VTKFile type="RectilinearGrid">
<RectilinearGrid WholeExtent="0 100 0 0 0 0">
<Piece Extent="0 100 0 0 0 0">
<Coordinates>
<DataArray type="Float32" format="ascii">
0
10
20
30
40
50
60
70
80
90
100
110
120
130
140
150
160
170
180
190
200
210
220
230
240
250
260
270
280
290
300
310
320
330
340
350
360
370
380
390
400
410
420
430
440
450
460
470
480
490
500
510
520
530
540
550
560
570
580
590
600
610
620
630
640
650
660
670
680
690
700
710
720
730
740
750
760
770
780
790
800
810
820
830
840
850
860
870
880
890
900
910
920
930
940
950
960
970
980
990
1000
</DataArray>
<DataArray type="Float32" format="ascii">
0
</DataArray>
<DataArray type="Float32" format="ascii">
0
</DataArray>
</Coordinates>
<CellData>
<DataArray Name="h" type="Float32" format="ascii">
3.25064
3.25107
3.25192
3.25319
3.25485
3.25688
3.25925
3.26193
3.26487
3.26802
3.27132
3.27473
3.27817
3.28161
3.28498
3.28825
3.29139
3.29435
3.29714
3.29973
3.30212
3.30432
3.30634
3.30821
3.30997
3.31166
3.31335
3.31513
3.31713
3.31948
3.32234
3.32592
3.33042
3.33606
3.34306
3.35166
3.36205
3.37441
3.38889
3.40561
3.42462
3.44597
3.46964
3.49562
3.5239
3.55462
3.58845
3.62783
3.68134
3.78142
4.07804
4.93957
6.4143
7.84376
8.71052
9.14084
9.37172
9.52468
9.64784
9.75902
9.86477
9.96745
10.0679
10.1664
10.2629
10.3573
10.4495
10.5393
10.6267
10.7116
10.7937
10.873
10.9495
11.0231
11.0936
11.1611
11.2256
11.2869
11.3452
11.4004
11.4526
11.5018
11.548
11.5912
11.6316
11.6691
11.7039
11.7359
11.7652
11.7919
11.816
11.8376
11.8566
11.8732
11.8874
11.8992
11.9085
11.9156
11.9202
11.9226
</DataArray>
<DataArray Name="hu" type="Float32" format="ascii">
-0.00389874
-0.0120431
-0.0212147
-0.0320537
-0.045126
-0.0609079
-0.0797588
-0.101897
-0.127371
-0.156066
-0.187711
-0.221853
-0.257906
-0.295166
-0.332848
-0.370126
-0.406187
-0.440272
-0.471693
-0.499871
-0.524339
-0.544748
-0.560857
-0.572491
-0.57948
-0.581633
-0.578672
-0.570179
-0.555541
-0.533908
-0.504177
-0.464983
-0.414739
-0.351674
-0.273883
-0.179423
-0.0663981
0.0669723
0.222277
0.400843
0.6037
0.831554
1.08475
1.36322
1.66613
1.99102
2.33043
2.66073
2.904
2.83753
1.60664
-4.31916
-18.1459
-34.3612
-45.0062
-49.6602
-51.1087
-51.223
-50.8177
-50.2059
-49.5042
-48.756
-47.9772
-47.1732
-46.3451
-45.4927
-44.615
-43.7108
-42.7787
-41.8177
-40.8266
-39.8045
-38.7507
-37.6647
-36.5464
-35.3957
-34.213
-32.9987
-31.7536
-30.4786
-29.1747
-27.8431
-26.4852
-25.1022
-23.6958
-22.2673
-20.8182
-19.3502
-17.8647
-16.3633
-14.8474
-13.3186
-11.7783
-10.2279
-8.66884
-7.10251
-5.53026
-3.95344
-2.37336
-0.791335
</DataArray>
<DataArray Name="B" type="Float32" format="ascii">
-5
-5
-5
-5
-5
-5
-5
-5
-5
-5
-5
-5
-5
-5
-5
-5
-5
-5
-5
-5
-5
-5
-5
-5
-5
-5
-5
-5
-5
-5
-5
-5
-5
-5
-5
-5
-5
-5
-5
-5
-5
-5
-5
-5
-5
-5
-5
-5
-5
-5
-1
-1
-1
-1
-1
-1
-1
-1
-1
-1
-1
-1
-1
-1
-1
-1
-1
-1
-1
-1
-1
-1
-1
-1
-1
-1
-1
-1
-1
-1
-1
-1
-1
-1
-1
-1
-1
-1
-1
-1
-1
-1
-1
-1
-1
-1
-1
-1
-1
-1
</DataArray>
</CellData>
</Piece>
</RectilinearGrid>
</VTKFile>
