<?xml version="1.0"?>
<VTKFile type="RectilinearGrid">
<RectilinearGrid WholeExtent="0 100 0 0 0 0">
<Piece Extent="0 100 0 0 0 0">
<Coordinates>
<DataArray type="Float32" format="ascii">
0
10
20
30
40
50
60
70
80
90
100
110
120
130
140
150
160
170
180
190
200
210
220
230
240
250
260
270
280
290
300
310
320
330
340
350
360
370
380
390
400
410
420
430
440
450
460
470
480
490
500
510
520
530
540
550
560
570
580
590
600
610
620
630
640
650
660
670
680
690
700
710
720
730
740
750
760
770
780
790
800
810
820
830
840
850
860
870
880
890
900
910
920
930
940
950
960
970
980
990
1000
</DataArray>
<DataArray type="Float32" format="ascii">
0
</DataArray>
<DataArray type="Float32" format="ascii">
0
</DataArray>
</Coordinates>
<CellData>
<DataArray Name="h" type="Float32" format="ascii">
3.28946
3.29533
3.30708
3.32478
3.34846
3.37813
3.41373
3.45517
3.50225
3.55474
3.61236
3.6748
3.74173
3.81283
3.88774
3.96614
4.04765
4.1319
4.21851
4.30707
4.39719
4.4885
4.58065
4.67337
4.76642
4.85963
4.95287
5.04607
5.13918
5.23215
5.32496
5.41759
5.51
5.60216
5.69404
5.78563
5.8769
5.96788
6.05858
6.14905
6.23932
6.32942
6.41936
6.50907
6.59845
6.68729
6.77533
6.86226
6.94774
7.0319
7.08753
7.15457
7.21936
7.28216
7.34302
7.40201
7.45922
7.51478
7.56885
7.62158
7.6731
7.7235
7.77276
7.82076
7.86724
7.91181
7.95398
7.99325
8.02912
8.06122
8.08934
8.11342
8.13361
8.1502
8.16358
8.17418
8.18246
8.18884
8.19371
8.19737
8.20009
8.20208
8.20351
8.20453
8.20534
8.20641
8.20953
8.22181
8.27098
8.45568
9.04777
10.3943
12.2288
13.7118
14.5171
14.8605
14.9887
15.0329
15.0473
15.0515
</DataArray>
<DataArray Name="hu" type="Float32" format="ascii">
0.0749488
0.231172
0.405998
0.61063
0.854635
1.14557
1.4888
1.88759
2.34321
2.85527
3.42204
4.04081
4.70824
5.42068
6.17444
6.9661
7.79263
8.65153
9.54083
10.4591
11.4053
12.3785
13.378
14.4027
15.4517
16.5236
17.6169
18.7299
19.8607
21.0077
22.1692
23.3435
24.5292
25.7247
26.9286
28.1393
29.3552
30.5745
31.7952
33.0152
34.2321
35.4438
36.648
37.8431
39.0273
40.1998
41.3598
42.5066
43.6396
44.7657
45.8851
46.9699
48.0301
49.0623
50.0641
51.0328
51.9657
52.8598
53.712
54.5194
55.2791
55.9886
56.646
57.2504
57.8017
58.3009
58.75
59.1518
59.5094
59.8263
60.1058
60.3509
60.5644
60.7486
60.906
61.0385
61.1486
61.2386
61.3107
61.3675
61.4113
61.4442
61.4684
61.4854
61.4965
61.5013
61.4939
61.4462
61.2411
60.4052
57.199
47.7924
31.5753
16.0775
6.75944
2.56463
0.94554
0.359519
0.139988
0.0379023
</DataArray>
<DataArray Name="B" type="Float32" format="ascii">
-5
-5
-5
-5
-5
-5
-5
-5
-5
-5
-5
-5
-5
-5
-5
-5
-5
-5
-5
-5
-5
-5
-5
-5
-5
-5
-5
-5
-5
-5
-5
-5
-5
-5
-5
-5
-5
-5
-5
-5
-5
-5
-5
-5
-5
-5
-5
-5
-5
-5
-1
-1
-1
-1
-1
-1
-1
-1
-1
-1
-1
-1
-1
-1
-1
-1
-1
-1
-1
-1
-1
-1
-1
-1
-1
-1
-1
-1
-1
-1
-1
-1
-1
-1
-1
-1
-1
-1
-1
-1
-1
-1
-1
-1
-1
-1
-1
-1
-1
-1
</DataArray>
</CellData>
</Piece>
</RectilinearGrid>
</VTKFile>
