<?xml version="1.0"?>
<VTKFile type="RectilinearGrid">
<RectilinearGrid WholeExtent="0 100 0 0 0 0">
<Piece Extent="0 100 0 0 0 0">
<Coordinates>
<DataArray type="Float32" format="ascii">
0
10
20
30
40
50
60
70
80
90
100
110
120
130
140
150
160
170
180
190
200
210
220
230
240
250
260
270
280
290
300
310
320
330
340
350
360
370
380
390
400
410
420
430
440
450
460
470
480
490
500
510
520
530
540
550
560
570
580
590
600
610
620
630
640
650
660
670
680
690
700
710
720
730
740
750
760
770
780
790
800
810
820
830
840
850
860
870
880
890
900
910
920
930
940
950
960
970
980
990
1000
</DataArray>
<DataArray type="Float32" format="ascii">
0
</DataArray>
<DataArray type="Float32" format="ascii">
0
</DataArray>
</Coordinates>
<CellData>
<DataArray Name="h" type="Float32" format="ascii">
7.64565
7.64577
7.64603
7.64645
7.6471
7.64807
7.64948
7.6515
7.65436
7.65834
7.66376
7.67102
7.68052
7.69266
7.70776
7.72604
7.74752
7.77199
7.79898
7.82774
7.85733
7.88671
7.91482
7.94074
7.96377
7.98349
7.99978
8.01273
8.02269
8.03007
8.03537
8.03906
8.04158
8.04327
8.04441
8.04521
8.04579
8.04624
8.04661
8.04694
8.04723
8.0475
8.04775
8.04797
8.04816
8.04833
8.04846
8.04857
8.04864
8.04754
8.03477
8.02041
8.00689
7.99298
7.97866
7.96394
7.94879
7.93323
7.91723
7.9008
7.88392
7.86659
7.84881
7.83058
7.8119
7.79277
7.77319
7.75317
7.73273
7.71187
7.6906
7.66887
7.64656
7.62339
7.59867
7.57061
7.53436
7.4772
7.36603
7.11903
6.56478
5.50832
4.236
3.49813
3.26135
3.19283
3.16282
3.14139
3.12252
3.10508
3.0889
3.07402
3.06051
3.04847
3.03796
3.02907
3.02187
3.01641
3.01275
3.01091
</DataArray>
<DataArray Name="hu" type="Float32" format="ascii">
0.305406
0.916019
1.52599
2.13476
2.74161
3.34552
3.94512
4.5386
5.12362
5.69724
6.256
6.79601
7.31315
7.80348
8.26374
8.69195
9.08804
9.45441
9.7962
10.1212
10.4392
10.7613
11.0982
11.4595
11.8523
12.2807
12.7458
13.246
13.7777
14.3361
14.9159
15.5118
16.1193
16.7347
17.355
17.9781
18.6026
19.2276
19.8525
20.4769
21.1008
21.7238
22.3461
22.9676
23.5882
24.2079
24.8266
25.4444
26.0612
26.6614
27.264
27.8856
28.4969
29.1068
29.7151
30.3218
30.9268
31.5302
32.1318
32.7317
33.3297
33.9257
34.5197
35.1116
35.7012
36.2884
36.873
37.4549
38.0338
38.6091
39.1805
39.7467
40.3058
40.8525
41.374
41.8378
42.1608
42.1277
41.187
38.0387
30.3663
17.2435
4.78398
-0.71528
-1.95537
-2.07537
-1.96982
-1.82159
-1.66672
-1.5124
-1.36005
-1.20991
-1.06193
-0.91595
-0.77179
-0.629218
-0.487977
-0.347792
-0.208369
-0.0694057
</DataArray>
<DataArray Name="B" type="Float32" format="ascii">
-5
-5
-5
-5
-5
-5
-5
-5
-5
-5
-5
-5
-5
-5
-5
-5
-5
-5
-5
-5
-5
-5
-5
-5
-5
-5
-5
-5
-5
-5
-5
-5
-5
-5
-5
-5
-5
-5
-5
-5
-5
-5
-5
-5
-5
-5
-5
-5
-5
-5
-1
-1
-1
-1
-1
-1
-1
-1
-1
-1
-1
-1
-1
-1
-1
-1
-1
-1
-1
-1
-1
-1
-1
-1
-1
-1
-1
-1
-1
-1
-1
-1
-1
-1
-1
-1
-1
-1
-1
-1
-1
-1
-1
-1
-1
-1
-1
-1
-1
-1
</DataArray>
</CellData>
</Piece>
</RectilinearGrid>
</VTKFile>
