<?xml version="1.0"?>
<VTKFile type="RectilinearGrid">
<RectilinearGrid WholeExtent="0 100 0 0 0 0">
<Piece Extent="0 100 0 0 0 0">
<Coordinates>
<DataArray type="Float32" format="ascii">
0
10
20
30
40
50
60
70
80
90
100
110
120
130
140
150
160
170
180
190
200
210
220
230
240
250
260
270
280
290
300
310
320
330
340
350
360
370
380
390
400
410
420
430
440
450
460
470
480
490
500
510
520
530
540
550
560
570
580
590
600
610
620
630
640
650
660
670
680
690
700
710
720
730
740
750
760
770
780
790
800
810
820
830
840
850
860
870
880
890
900
910
920
930
940
950
960
970
980
990
1000
</DataArray>
<DataArray type="Float32" format="ascii">
0
</DataArray>
<DataArray type="Float32" format="ascii">
0
</DataArray>
</Coordinates>
<CellData>
<DataArray Name="h" type="Float32" format="ascii">
3.25731
3.25887
3.26217
3.26754
3.27545
3.28644
3.30109
3.31996
3.34353
3.37217
3.40612
3.44547
3.49016
3.54
3.59468
3.65383
3.71701
3.78375
3.85359
3.92612
4.00093
4.0777
4.15614
4.236
4.3171
4.39927
4.48238
4.5663
4.65094
4.73621
4.82203
4.90836
4.99514
5.08236
5.17003
5.25815
5.34675
5.43584
5.52543
5.61548
5.70594
5.79667
5.8875
5.97825
6.06866
6.1585
6.24756
6.3356
6.42247
6.50835
6.56772
6.64139
6.7149
6.78733
6.85884
6.9296
6.99977
7.0695
7.13893
7.20809
7.27695
7.34532
7.4129
7.47929
7.54395
7.60636
7.66596
7.72231
7.77505
7.82398
7.86902
7.91023
7.94773
7.9817
8.01237
8.03995
8.06463
8.08661
8.10606
8.12319
8.13832
8.15224
8.16764
8.1944
8.26865
8.51114
9.22042
10.6801
12.4851
13.8474
14.5666
14.8764
14.997
15.0419
15.0583
15.0645
15.067
15.0682
15.0688
15.0691
</DataArray>
<DataArray Name="hu" type="Float32" format="ascii">
0.0177768
0.0565652
0.10502
0.169489
0.256136
0.370786
0.518721
0.704497
0.931811
1.20339
1.52097
1.88544
2.29696
2.7551
3.25904
3.80764
4.39961
5.03347
5.70756
6.4201
7.16913
7.95254
8.76812
9.61363
10.4868
11.3855
12.3076
13.2512
14.2145
15.196
16.194
17.2071
18.2337
19.2723
20.3215
21.3795
22.445
23.5163
24.5922
25.6718
26.7543
27.8394
28.9272
30.018
31.1123
32.2104
33.3125
34.4188
35.5288
36.6474
37.7815
38.8957
39.992
41.0745
42.1415
43.1911
44.2213
45.2299
46.2149
47.1745
48.1071
49.0118
49.8879
50.7354
51.5547
52.346
53.1098
53.8459
54.5539
55.2327
55.8805
56.4955
57.0754
57.6182
58.1221
58.5858
59.0085
59.3902
59.7314
60.0329
60.2959
60.5198
60.6969
60.7896
60.6443
59.6581
55.7694
45.2397
28.8985
14.503
6.19117
2.45833
0.98279
0.431637
0.225586
0.140857
0.0967103
0.0655945
0.0385433
0.0127475
</DataArray>
<DataArray Name="B" type="Float32" format="ascii">
-5
-5
-5
-5
-5
-5
-5
-5
-5
-5
-5
-5
-5
-5
-5
-5
-5
-5
-5
-5
-5
-5
-5
-5
-5
-5
-5
-5
-5
-5
-5
-5
-5
-5
-5
-5
-5
-5
-5
-5
-5
-5
-5
-5
-5
-5
-5
-5
-5
-5
-1
-1
-1
-1
-1
-1
-1
-1
-1
-1
-1
-1
-1
-1
-1
-1
-1
-1
-1
-1
-1
-1
-1
-1
-1
-1
-1
-1
-1
-1
-1
-1
-1
-1
-1
-1
-1
-1
-1
-1
-1
-1
-1
-1
-1
-1
-1
-1
-1
-1
</DataArray>
</CellData>
</Piece>
</RectilinearGrid>
</VTKFile>
