<?xml version="1.0"?>
<VTKFile type="RectilinearGrid">
<RectilinearGrid WholeExtent="0 100 0 0 0 0">
<Piece Extent="0 100 0 0 0 0">
<Coordinates>
<DataArray type="Float32" format="ascii">
0
10
20
30
40
50
60
70
80
90
100
110
120
130
140
150
160
170
180
190
200
210
220
230
240
250
260
270
280
290
300
310
320
330
340
350
360
370
380
390
400
410
420
430
440
450
460
470
480
490
500
510
520
530
540
550
560
570
580
590
600
610
620
630
640
650
660
670
680
690
700
710
720
730
740
750
760
770
780
790
800
810
820
830
840
850
860
870
880
890
900
910
920
930
940
950
960
970
980
990
1000
</DataArray>
<DataArray type="Float32" format="ascii">
0
</DataArray>
<DataArray type="Float32" format="ascii">
0
</DataArray>
</Coordinates>
<CellData>
<DataArray Name="h" type="Float32" format="ascii">
3.24838
3.24829
3.24811
3.24786
3.24758
3.2473
3.24704
3.24683
3.24671
3.2467
3.24685
3.24721
3.24784
3.24884
3.25034
3.25252
3.25559
3.25982
3.26552
3.27302
3.28265
3.29476
3.30967
3.32765
3.34891
3.37358
3.40173
3.43336
3.46837
3.50665
3.54799
3.5922
3.63903
3.68826
3.73964
3.79294
3.84796
3.9045
3.96239
4.02146
4.08158
4.14262
4.20447
4.26704
4.33024
4.394
4.45825
4.52291
4.58794
4.65324
4.71234
4.79132
4.87577
4.95963
5.04272
5.12482
5.20571
5.2852
5.36314
5.43942
5.51403
5.58702
5.6586
5.72941
5.80177
5.8844
6.01101
6.30053
7.05015
8.5027
10.2031
11.4427
12.1183
12.4636
12.6613
12.7989
12.912
13.0149
13.1129
13.208
13.301
13.3919
13.4807
13.5673
13.6514
13.7329
13.8113
13.8863
13.9576
14.0248
14.0874
14.1452
14.1977
14.2446
14.2854
14.3199
14.3479
14.3691
14.3833
14.3904
</DataArray>
<DataArray Name="hu" type="Float32" format="ascii">
-0.00542985
-0.0159181
-0.025322
-0.033011
-0.0385068
-0.041518
-0.0419478
-0.0398825
-0.0355505
-0.0292881
-0.0214583
-0.0123633
-0.00217499
0.00915284
0.0219728
0.0370046
0.0553895
0.0787209
0.109026
0.148709
0.200495
0.267318
0.352206
0.45814
0.587921
0.744072
0.928762
1.14374
1.39027
1.66917
1.98084
2.32523
2.70194
3.11027
3.54923
4.01767
4.51429
5.03769
5.58645
6.1591
6.75421
7.37038
8.00627
8.66063
9.33226
10.0201
10.723
11.4403
12.1711
12.9142
13.697
14.4841
15.2378
15.9926
16.7496
17.5099
18.2746
19.0449
19.8216
20.6049
21.3952
22.1919
22.994
23.7982
24.5931
25.3357
25.8558
25.474
21.9118
11.5289
-3.8142
-16.264
-22.6965
-25.0075
-25.3616
-24.9079
-24.1356
-23.2391
-22.2939
-21.3295
-20.3569
-19.3803
-18.4008
-17.4185
-16.4327
-15.4424
-14.4463
-13.4431
-12.4315
-11.41
-10.3776
-9.33308
-8.27593
-7.20585
-6.12308
-5.0284
-3.92308
-2.80892
-1.6881
-0.563165
</DataArray>
<DataArray Name="B" type="Float32" format="ascii">
-5
-5
-5
-5
-5
-5
-5
-5
-5
-5
-5
-5
-5
-5
-5
-5
-5
-5
-5
-5
-5
-5
-5
-5
-5
-5
-5
-5
-5
-5
-5
-5
-5
-5
-5
-5
-5
-5
-5
-5
-5
-5
-5
-5
-5
-5
-5
-5
-5
-5
-1
-1
-1
-1
-1
-1
-1
-1
-1
-1
-1
-1
-1
-1
-1
-1
-1
-1
-1
-1
-1
-1
-1
-1
-1
-1
-1
-1
-1
-1
-1
-1
-1
-1
-1
-1
-1
-1
-1
-1
-1
-1
-1
-1
-1
-1
-1
-1
-1
-1
</DataArray>
</CellData>
</Piece>
</RectilinearGrid>
</VTKFile>
