<?xml version="1.0"?>
<VTKFile type="RectilinearGrid">
<RectilinearGrid WholeExtent="0 100 0 0 0 0">
<Piece Extent="0 100 0 0 0 0">
<Coordinates>
<DataArray type="Float32" format="ascii">
0
10
20
30
40
50
60
70
80
90
100
110
120
130
140
150
160
170
180
190
200
210
220
230
240
250
260
270
280
290
300
310
320
330
340
350
360
370
380
390
400
410
420
430
440
450
460
470
480
490
500
510
520
530
540
550
560
570
580
590
600
610
620
630
640
650
660
670
680
690
700
710
720
730
740
750
760
770
780
790
800
810
820
830
840
850
860
870
880
890
900
910
920
930
940
950
960
970
980
990
1000
</DataArray>
<DataArray type="Float32" format="ascii">
0
</DataArray>
<DataArray type="Float32" format="ascii">
0
</DataArray>
</Coordinates>
<CellData>
<DataArray Name="h" type="Float32" format="ascii">
3.27851
3.28323
3.29276
3.30726
3.32693
3.35194
3.38245
3.41854
3.46018
3.5073
3.55973
3.61724
3.67956
3.74637
3.81731
3.89202
3.97009
4.0511
4.13462
4.22021
4.30746
4.396
4.48551
4.57571
4.66639
4.75739
4.8486
4.93995
5.03137
5.12283
5.21428
5.30569
5.39702
5.48824
5.57933
5.67028
5.76108
5.85178
5.94239
6.03297
6.12355
6.21415
6.30472
6.39518
6.48537
6.57506
6.66398
6.75182
6.83828
6.9235
6.98033
7.04931
7.11646
7.18184
7.24551
7.30758
7.36814
7.42736
7.48537
7.54232
7.5983
7.65335
7.70738
7.76018
7.81141
7.86059
7.90719
7.95067
7.99053
8.02642
8.05814
8.08567
8.10916
8.12889
8.14524
8.15862
8.16946
8.17815
8.18506
8.1905
8.19473
8.19798
8.20047
8.20243
8.20433
8.2078
8.21895
8.26143
8.41979
8.93693
10.1742
11.9819
13.5431
14.4337
14.8266
14.9774
15.031
15.0491
15.055
15.0568
</DataArray>
<DataArray Name="hu" type="Float32" format="ascii">
0.0561743
0.174378
0.309839
0.473084
0.673281
0.917864
1.21235
1.5603
1.96343
2.42181
2.93417
3.49822
4.11106
4.76941
5.46999
6.20976
6.98602
7.79657
8.63961
9.51376
10.4179
11.3509
12.3116
13.299
14.3115
15.3475
16.4054
17.4834
18.5796
19.6924
20.8201
21.9613
23.1145
24.2783
25.4512
26.6317
27.8183
29.009
30.202
31.3953
32.5869
33.7749
34.9577
36.134
37.303
38.4641
39.6169
40.7614
41.897
43.0303
44.1628
45.2643
46.3439
47.3993
48.4284
49.4285
50.3972
51.3313
52.228
53.0843
53.8974
54.6648
55.3847
56.0561
56.6787
57.2532
57.7809
58.2637
58.7038
59.1032
59.464
59.7878
60.0762
60.3305
60.5523
60.7433
60.9054
61.0409
61.1525
61.2428
61.3146
61.3707
61.4136
61.4453
61.4665
61.4729
61.4414
61.2734
60.5723
57.8547
49.507
33.9799
17.9835
7.80101
3.03651
1.14727
0.452474
0.195824
0.0875563
0.0257468
</DataArray>
<DataArray Name="B" type="Float32" format="ascii">
-5
-5
-5
-5
-5
-5
-5
-5
-5
-5
-5
-5
-5
-5
-5
-5
-5
-5
-5
-5
-5
-5
-5
-5
-5
-5
-5
-5
-5
-5
-5
-5
-5
-5
-5
-5
-5
-5
-5
-5
-5
-5
-5
-5
-5
-5
-5
-5
-5
-5
-1
-1
-1
-1
-1
-1
-1
-1
-1
-1
-1
-1
-1
-1
-1
-1
-1
-1
-1
-1
-1
-1
-1
-1
-1
-1
-1
-1
-1
-1
-1
-1
-1
-1
-1
-1
-1
-1
-1
-1
-1
-1
-1
-1
-1
-1
-1
-1
-1
-1
</DataArray>
</CellData>
</Piece>
</RectilinearGrid>
</VTKFile>
