<?xml version="1.0"?>
<VTKFile type="RectilinearGrid">
<RectilinearGrid WholeExtent="0 100 0 0 0 0">
<Piece Extent="0 100 0 0 0 0">
<Coordinates>
<DataArray type="Float32" format="ascii">
0
10
20
30
40
50
60
70
80
90
100
110
120
130
140
150
160
170
180
190
200
210
220
230
240
250
260
270
280
290
300
310
320
330
340
350
360
370
380
390
400
410
420
430
440
450
460
470
480
490
500
510
520
530
540
550
560
570
580
590
600
610
620
630
640
650
660
670
680
690
700
710
720
730
740
750
760
770
780
790
800
810
820
830
840
850
860
870
880
890
900
910
920
930
940
950
960
970
980
990
1000
</DataArray>
<DataArray type="Float32" format="ascii">
0
</DataArray>
<DataArray type="Float32" format="ascii">
0
</DataArray>
</Coordinates>
<CellData>
<DataArray Name="h" type="Float32" format="ascii">
3.27403
3.27821
3.28668
3.29965
3.31738
3.34013
3.36814
3.40158
3.44051
3.48493
3.53473
3.58972
3.64966
3.71423
3.78309
3.85585
3.93207
4.01133
4.09317
4.17716
4.26287
4.34993
4.43803
4.5269
4.61634
4.70619
4.79634
4.88672
4.97726
5.06792
5.15865
5.24941
5.34016
5.43088
5.52153
5.61213
5.70267
5.79319
5.88373
5.97433
6.06502
6.15579
6.24659
6.33732
6.42779
6.51777
6.60698
6.69513
6.78193
6.86752
6.92486
6.9947
7.06293
7.12949
7.19447
7.25797
7.32011
7.38104
7.44092
7.49986
7.55796
7.61522
7.67151
7.72659
7.78007
7.83146
7.88021
7.92575
7.96761
8.00544
8.03906
8.06845
8.09376
8.11527
8.13334
8.14837
8.16075
8.17086
8.17905
8.18562
8.19084
8.19494
8.19816
8.20083
8.20378
8.20999
8.2308
8.30865
8.58466
9.38746
10.9517
12.7483
14.0153
14.6498
14.9113
15.0085
15.0424
15.054
15.0578
15.059
</DataArray>
<DataArray Name="hu" type="Float32" format="ascii">
0.0481762
0.150087
0.268402
0.413199
0.59336
0.816213
1.08732
1.41043
1.7875
2.21889
2.70364
3.23978
3.82467
4.45532
5.1287
5.84198
6.59268
7.3787
8.19831
9.05013
9.93292
10.8455
11.7866
12.7548
13.7485
14.7662
15.8058
16.8657
17.9441
19.0392
20.1496
21.2736
22.41
23.5572
24.7139
25.8785
27.0494
28.2249
29.403
30.5819
31.7597
32.9347
34.1056
35.2714
36.4315
37.5856
38.7336
39.8753
41.0103
42.1451
43.2819
44.3895
45.4761
46.5404
47.5802
48.5931
49.5765
50.5275
51.4432
52.3207
53.1574
53.9509
54.6994
55.4019
56.0582
56.6689
57.2349
57.7579
58.2394
58.6809
59.0838
59.4491
59.7776
60.0703
60.3281
60.5523
60.7448
60.9077
61.0434
61.1548
61.2447
61.316
61.3715
61.413
61.4403
61.4437
61.3786
61.0609
59.7629
55.0761
43.2619
26.4297
12.7029
5.22387
2.00499
0.775158
0.325132
0.152904
0.073219
0.0222803
</DataArray>
<DataArray Name="B" type="Float32" format="ascii">
-5
-5
-5
-5
-5
-5
-5
-5
-5
-5
-5
-5
-5
-5
-5
-5
-5
-5
-5
-5
-5
-5
-5
-5
-5
-5
-5
-5
-5
-5
-5
-5
-5
-5
-5
-5
-5
-5
-5
-5
-5
-5
-5
-5
-5
-5
-5
-5
-5
-5
-1
-1
-1
-1
-1
-1
-1
-1
-1
-1
-1
-1
-1
-1
-1
-1
-1
-1
-1
-1
-1
-1
-1
-1
-1
-1
-1
-1
-1
-1
-1
-1
-1
-1
-1
-1
-1
-1
-1
-1
-1
-1
-1
-1
-1
-1
-1
-1
-1
-1
</DataArray>
</CellData>
</Piece>
</RectilinearGrid>
</VTKFile>
