<?xml version="1.0"?>
<VTKFile type="RectilinearGrid">
<RectilinearGrid WholeExtent="0 100 0 0 0 0">
<Piece Extent="0 100 0 0 0 0">
<Coordinates>
<DataArray type="Float32" format="ascii">
0
10
20
30
40
50
60
70
80
90
100
110
120
130
140
150
160
170
180
190
200
210
220
230
240
250
260
270
280
290
300
310
320
330
340
350
360
370
380
390
400
410
420
430
440
450
460
470
480
490
500
510
520
530
540
550
560
570
580
590
600
610
620
630
640
650
660
670
680
690
700
710
720
730
740
750
760
770
780
790
800
810
820
830
840
850
860
870
880
890
900
910
920
930
940
950
960
970
980
990
1000
</DataArray>
<DataArray type="Float32" format="ascii">
0
</DataArray>
<DataArray type="Float32" format="ascii">
0
</DataArray>
</Coordinates>
<CellData>
<DataArray Name="h" type="Float32" format="ascii">
3.24148
3.24187
3.24262
3.24369
3.24501
3.24651
3.24816
3.24994
3.2519
3.25414
3.25686
3.2603
3.26479
3.27072
3.27851
3.28859
3.30141
3.31735
3.33675
3.35989
3.38695
3.41804
3.45321
3.49241
3.53557
3.58254
3.63316
3.68722
3.74451
3.80477
3.86774
3.93315
4.0007
4.0701
4.14107
4.21332
4.2866
4.36066
4.4353
4.51032
4.58558
4.66095
4.73632
4.81162
4.88679
4.96179
5.03658
5.11115
5.18549
5.25963
5.31965
5.39814
5.48102
5.56386
5.64668
5.72941
5.8119
5.89393
5.97521
6.05546
6.13438
6.21171
6.28726
6.36091
6.43262
6.50242
6.5704
6.63669
6.70148
6.76508
6.82831
6.89394
6.97212
7.10042
7.40508
8.18864
9.69198
11.4584
12.7647
13.4826
13.8416
14.0347
14.1585
14.2531
14.3347
14.4092
14.4788
14.5443
14.6056
14.6627
14.7155
14.7637
14.8072
14.8458
14.8792
14.9073
14.93
14.9471
14.9586
14.9644
</DataArray>
<DataArray Name="hu" type="Float32" format="ascii">
-0.000551718
-0.00166728
-0.00279694
-0.00386722
-0.00464748
-0.00472316
-0.00344929
0.000120617
0.00724712
0.0195765
0.0391616
0.0684461
0.110264
0.167757
0.244272
0.343214
0.467869
0.62123
0.805835
1.02365
1.27598
1.56346
1.88605
2.24312
2.6336
3.05602
3.50871
3.98989
4.49784
5.03094
5.58779
6.16725
6.76844
7.39069
8.03356
8.6967
9.37988
10.0828
10.8052
11.5468
12.307
13.0852
13.881
14.6935
15.522
16.3656
17.2236
18.0951
18.9792
19.8758
20.807
21.735
22.6331
23.5267
24.4157
25.3007
26.1826
27.0625
27.9418
28.8221
29.7047
30.5907
31.4808
32.3753
33.274
34.1764
35.0816
35.9882
36.895
37.7997
38.6981
39.5771
40.3902
40.9608
40.6095
37.1076
26.896
11.6606
-0.949439
-7.64317
-10.1468
-10.6196
-10.2561
-9.57881
-8.79881
-7.99939
-7.21386
-6.45617
-5.73278
-5.04708
-4.40093
-3.79522
-3.2299
-2.70397
-2.21536
-1.76089
-1.33625
-0.936089
-0.554155
-0.183455
</DataArray>
<DataArray Name="B" type="Float32" format="ascii">
-5
-5
-5
-5
-5
-5
-5
-5
-5
-5
-5
-5
-5
-5
-5
-5
-5
-5
-5
-5
-5
-5
-5
-5
-5
-5
-5
-5
-5
-5
-5
-5
-5
-5
-5
-5
-5
-5
-5
-5
-5
-5
-5
-5
-5
-5
-5
-5
-5
-5
-1
-1
-1
-1
-1
-1
-1
-1
-1
-1
-1
-1
-1
-1
-1
-1
-1
-1
-1
-1
-1
-1
-1
-1
-1
-1
-1
-1
-1
-1
-1
-1
-1
-1
-1
-1
-1
-1
-1
-1
-1
-1
-1
-1
-1
-1
-1
-1
-1
-1
</DataArray>
</CellData>
</Piece>
</RectilinearGrid>
</VTKFile>
