<?xml version="1.0"?>
<VTKFile type="RectilinearGrid">
<RectilinearGrid WholeExtent="0 100 0 0 0 0">
<Piece Extent="0 100 0 0 0 0">
<Coordinates>
<DataArray type="Float32" format="ascii">
0
10
20
30
40
50
60
70
80
90
100
110
120
130
140
150
160
170
180
190
200
210
220
230
240
250
260
270
280
290
300
310
320
330
340
350
360
370
380
390
400
410
420
430
440
450
460
470
480
490
500
510
520
530
540
550
560
570
580
590
600
610
620
630
640
650
660
670
680
690
700
710
720
730
740
750
760
770
780
790
800
810
820
830
840
850
860
870
880
890
900
910
920
930
940
950
960
970
980
990
1000
</DataArray>
<DataArray type="Float32" format="ascii">
0
</DataArray>
<DataArray type="Float32" format="ascii">
0
</DataArray>
</Coordinates>
<CellData>
<DataArray Name="h" type="Float32" format="ascii">
13.6137
13.5719
13.4895
13.3686
13.2124
13.0241
12.8073
12.5656
12.3022
12.0204
11.7231
11.4134
11.0943
10.7687
10.4401
10.1122
9.78957
9.47735
9.18174
8.90975
8.66884
8.46591
8.30587
8.18991
8.11454
8.07196
8.05218
8.04573
8.04557
8.04761
8.04997
8.05205
8.05377
8.05516
8.05628
8.05721
8.05796
8.05851
8.05864
8.05781
8.05502
8.04898
8.03899
8.02618
8.01445
8.00935
8.01446
8.02787
8.04255
8.05194
8.05647
8.05054
8.04236
8.0309
8.01103
7.9707
7.88151
7.67713
7.21664
6.29592
4.97444
3.98151
3.61291
3.52363
3.50489
3.50103
3.50022
3.50005
3.50001
3.5
3.5
3.5
3.5
3.50001
3.50003
3.50007
3.50016
3.50037
3.50078
3.5016
3.50307
3.50559
3.5096
3.51556
3.52377
3.53421
3.54641
3.55944
3.5721
3.58322
3.59201
3.59822
3.60211
3.60425
3.60527
3.60568
3.60582
3.60585
3.60586
3.60586
</DataArray>
<DataArray Name="hu" type="Float32" format="ascii">
0.983961
2.98713
5.09143
7.34993
9.79746
12.4487
15.2997
18.3313
21.5133
24.8095
28.1803
31.5856
34.9859
38.3427
41.6183
44.7754
47.7757
50.5801
53.1475
55.4364
57.4072
59.0282
60.283
61.1799
61.7577
62.0816
62.2298
62.2752
62.2716
62.2506
62.2265
62.2041
62.184
62.1658
62.149
62.133
62.1177
62.1031
62.0906
62.0843
62.0914
62.1214
62.1801
62.2594
62.3308
62.3526
62.2959
62.1723
62.0323
61.9298
61.8675
61.8442
61.7895
61.6511
61.3238
60.5634
58.7992
54.7632
46.1539
31.1562
14.2496
4.44238
1.49738
0.862011
0.73334
0.707027
0.701516
0.700333
0.700072
0.700014
0.700001
0.699992
0.699976
0.699934
0.699827
0.699564
0.698955
0.697629
0.694908
0.689639
0.68005
0.663687
0.637571
0.598712
0.54504
0.476548
0.396201
0.310023
0.225972
0.151842
0.0930628
0.051437
0.0253226
0.010954
0.0041112
0.00133815
0.000396601
0.000126595
5.04897e-05
1.53103e-05
</DataArray>
<DataArray Name="B" type="Float32" format="ascii">
-5
-5
-5
-5
-5
-5
-5
-5
-5
-5
-5
-5
-5
-5
-5
-5
-5
-5
-5
-5
-5
-5
-5
-5
-5
-5
-5
-5
-5
-5
-5
-5
-5
-5
-5
-5
-5
-5
-5
-5
-5
-5
-5
-5
-5
-5
-5
-5
-5
-5
-1
-1
-1
-1
-1
-1
-1
-1
-1
-1
-1
-1
-1
-1
-1
-1
-1
-1
-1
-1
-1
-1
-1
-1
-1
-1
-1
-1
-1
-1
-1
-1
-1
-1
-1
-1
-1
-1
-1
-1
-1
-1
-1
-1
-1
-1
-1
-1
-1
-1
</DataArray>
</CellData>
</Piece>
</RectilinearGrid>
</VTKFile>
