<?xml version="1.0"?>
<VTKFile type="RectilinearGrid">
<RectilinearGrid WholeExtent="0 100 0 0 0 0">
<Piece Extent="0 100 0 0 0 0">
<Coordinates>
<DataArray type="Float32" format="ascii">
0
10
20
30
40
50
60
70
80
90
100
110
120
130
140
150
160
170
180
190
200
210
220
230
240
250
260
270
280
290
300
310
320
330
340
350
360
370
380
390
400
410
420
430
440
450
460
470
480
490
500
510
520
530
540
550
560
570
580
590
600
610
620
630
640
650
660
670
680
690
700
710
720
730
740
750
760
770
780
790
800
810
820
830
840
850
860
870
880
890
900
910
920
930
940
950
960
970
980
990
1000
</DataArray>
<DataArray type="Float32" format="ascii">
0
</DataArray>
<DataArray type="Float32" format="ascii">
0
</DataArray>
</Coordinates>
<CellData>
<DataArray Name="h" type="Float32" format="ascii">
3.24155
3.24194
3.24269
3.24374
3.24504
3.24651
3.24811
3.24982
3.25169
3.2538
3.25633
3.25953
3.26371
3.26926
3.27658
3.28612
3.2983
3.31353
3.33217
3.35449
3.3807
3.41092
3.44522
3.48358
3.52591
3.5721
3.62197
3.67533
3.73194
3.79157
3.85394
3.91876
3.98575
4.0546
4.12503
4.19676
4.26951
4.34307
4.4172
4.49174
4.56653
4.64144
4.71638
4.79126
4.86604
4.94067
5.01511
5.08936
5.16338
5.23724
5.29725
5.3758
5.45879
5.54173
5.62465
5.70745
5.78999
5.87202
5.95328
6.03347
6.11229
6.18951
6.26493
6.33847
6.41008
6.4798
6.54773
6.61401
6.67884
6.7426
6.80636
6.87381
6.95872
7.11136
7.49313
8.43779
10.0695
11.7758
12.9332
13.5451
13.8529
14.0251
14.1409
14.233
14.314
14.3888
14.459
14.5252
14.5874
14.6455
14.6992
14.7484
14.7929
14.8323
14.8666
14.8955
14.9189
14.9365
14.9483
14.9543
</DataArray>
<DataArray Name="hu" type="Float32" format="ascii">
-0.000948716
-0.00282646
-0.00462986
-0.00624048
-0.00741362
-0.00775041
-0.00665083
-0.00325503
0.0035839
0.0153774
0.0340271
0.0618217
0.101454
0.155948
0.228565
0.322665
0.441535
0.588209
0.765303
0.974894
1.21841
1.4966
1.80956
2.15679
2.5373
2.94975
3.39253
3.86396
4.36238
4.88623
5.43417
6.0051
6.59816
7.2127
7.84826
8.50449
9.1811
9.87779
10.5942
11.33
12.0846
12.8574
13.6478
14.455
15.2782
16.1166
16.9694
17.8356
18.7146
19.6059
20.5321
21.4552
22.3483
23.2369
24.1211
25.0016
25.8792
26.7551
27.6308
28.5078
29.3873
30.2705
31.1581
32.0502
32.9466
33.8469
34.7499
35.6546
36.5593
37.4619
38.3567
39.2265
40.0084
40.4607
39.6641
34.8836
23.0167
7.73332
-3.5208
-9.00813
-10.8737
-11.069
-10.5919
-9.86716
-9.0647
-8.25163
-7.45496
-6.68626
-5.95108
-5.25243
-4.59206
-3.97081
-3.38865
-2.84459
-2.33665
-1.86176
-1.41575
-0.993465
-0.588819
-0.195048
</DataArray>
<DataArray Name="B" type="Float32" format="ascii">
-5
-5
-5
-5
-5
-5
-5
-5
-5
-5
-5
-5
-5
-5
-5
-5
-5
-5
-5
-5
-5
-5
-5
-5
-5
-5
-5
-5
-5
-5
-5
-5
-5
-5
-5
-5
-5
-5
-5
-5
-5
-5
-5
-5
-5
-5
-5
-5
-5
-5
-1
-1
-1
-1
-1
-1
-1
-1
-1
-1
-1
-1
-1
-1
-1
-1
-1
-1
-1
-1
-1
-1
-1
-1
-1
-1
-1
-1
-1
-1
-1
-1
-1
-1
-1
-1
-1
-1
-1
-1
-1
-1
-1
-1
-1
-1
-1
-1
-1
-1
</DataArray>
</CellData>
</Piece>
</RectilinearGrid>
</VTKFile>
