<?xml version="1.0"?>
<VTKFile type="RectilinearGrid">
<RectilinearGrid WholeExtent="0 100 0 0 0 0">
<Piece Extent="0 100 0 0 0 0">
<Coordinates>
<DataArray type="Float32" format="ascii">
0
10
20
30
40
50
60
70
80
90
100
110
120
130
140
150
160
170
180
190
200
210
220
230
240
250
260
270
280
290
300
310
320
330
340
350
360
370
380
390
400
410
420
430
440
450
460
470
480
490
500
510
520
530
540
550
560
570
580
590
600
610
620
630
640
650
660
670
680
690
700
710
720
730
740
750
760
770
780
790
800
810
820
830
840
850
860
870
880
890
900
910
920
930
940
950
960
970
980
990
1000
</DataArray>
<DataArray type="Float32" format="ascii">
0
</DataArray>
<DataArray type="Float32" format="ascii">
0
</DataArray>
</Coordinates>
<CellData>
<DataArray Name="h" type="Float32" format="ascii">
3.24967
3.25
3.25065
3.25162
3.25291
3.25451
3.25641
3.25859
3.26103
3.26371
3.26659
3.26966
3.27286
3.27615
3.27951
3.28289
3.28625
3.28954
3.29275
3.29585
3.2988
3.30161
3.30428
3.30682
3.30927
3.31169
3.31417
3.31683
3.31981
3.32329
3.32747
3.33259
3.33888
3.34658
3.35593
3.36715
3.38043
3.39593
3.41375
3.43396
3.45659
3.48163
3.50901
3.53866
3.57046
3.60432
3.64018
3.67811
3.71875
3.7647
3.83454
4.01086
4.4943
5.61006
7.17997
8.45359
9.15551
9.50614
9.70631
9.84805
9.96702
10.0765
10.1813
10.2834
10.3833
10.4811
10.5769
10.6706
10.762
10.851
10.9375
11.0213
11.1024
11.1806
11.2559
11.3281
11.3973
11.4633
11.5261
11.5857
11.6422
11.6954
11.7455
11.7924
11.8362
11.877
11.9147
11.9495
11.9814
12.0104
12.0366
12.0601
12.0808
12.0988
12.1142
12.127
12.1372
12.1448
12.1499
12.1524
</DataArray>
<DataArray Name="hu" type="Float32" format="ascii">
-0.00150738
-0.00489363
-0.00938444
-0.0156742
-0.0243919
-0.0360828
-0.0511822
-0.0699801
-0.0926055
-0.119006
-0.148939
-0.18198
-0.217548
-0.254914
-0.293238
-0.331633
-0.369205
-0.405115
-0.438583
-0.468942
-0.495638
-0.518217
-0.536316
-0.549614
-0.557767
-0.560368
-0.556889
-0.546617
-0.528614
-0.501707
-0.464485
-0.415317
-0.352409
-0.27386
-0.177748
-0.0622132
0.0744542
0.233762
0.416957
0.624983
0.858476
1.11778
1.40295
1.71377
2.04975
2.41007
2.79334
3.19662
3.61219
4.0183
4.36571
4.19837
1.79758
-6.75372
-22.341
-37.0781
-45.3674
-48.6148
-49.4463
-49.3044
-48.7838
-48.1101
-47.3672
-46.5864
-45.7789
-44.9482
-44.0947
-43.2177
-42.3159
-41.3877
-40.4315
-39.4461
-38.4301
-37.3826
-36.3027
-35.1899
-34.0441
-32.8652
-31.6534
-30.4095
-29.134
-27.8281
-26.4928
-25.1294
-23.7393
-22.3242
-20.8855
-19.4249
-17.9441
-16.4447
-14.9285
-13.3971
-11.8522
-10.2956
-8.72869
-7.15324
-5.57082
-3.983
-2.39133
-0.797363
</DataArray>
<DataArray Name="B" type="Float32" format="ascii">
-5
-5
-5
-5
-5
-5
-5
-5
-5
-5
-5
-5
-5
-5
-5
-5
-5
-5
-5
-5
-5
-5
-5
-5
-5
-5
-5
-5
-5
-5
-5
-5
-5
-5
-5
-5
-5
-5
-5
-5
-5
-5
-5
-5
-5
-5
-5
-5
-5
-5
-1
-1
-1
-1
-1
-1
-1
-1
-1
-1
-1
-1
-1
-1
-1
-1
-1
-1
-1
-1
-1
-1
-1
-1
-1
-1
-1
-1
-1
-1
-1
-1
-1
-1
-1
-1
-1
-1
-1
-1
-1
-1
-1
-1
-1
-1
-1
-1
-1
-1
</DataArray>
</CellData>
</Piece>
</RectilinearGrid>
</VTKFile>
