<?xml version="1.0"?>
<VTKFile type="RectilinearGrid">
<RectilinearGrid WholeExtent="0 100 0 0 0 0">
<Piece Extent="0 100 0 0 0 0">
<Coordinates>
<DataArray type="Float32" format="ascii">
0
10
20
30
40
50
60
70
80
90
100
110
120
130
140
150
160
170
180
190
200
210
220
230
240
250
260
270
280
290
300
310
320
330
340
350
360
370
380
390
400
410
420
430
440
450
460
470
480
490
500
510
520
530
540
550
560
570
580
590
600
610
620
630
640
650
660
670
680
690
700
710
720
730
740
750
760
770
780
790
800
810
820
830
840
850
860
870
880
890
900
910
920
930
940
950
960
970
980
990
1000
</DataArray>
<DataArray type="Float32" format="ascii">
0
</DataArray>
<DataArray type="Float32" format="ascii">
0
</DataArray>
</Coordinates>
<CellData>
<DataArray Name="h" type="Float32" format="ascii">
9.07572
9.07566
9.07556
9.0754
9.07519
9.07493
9.07462
9.07425
9.07384
9.07337
9.07286
9.07229
9.07168
9.07102
9.0703
9.06954
9.06874
9.06788
9.06697
9.06602
9.06501
9.06395
9.06284
9.06168
9.06047
9.05921
9.05791
9.05657
9.05524
9.05397
9.05288
9.05221
9.05237
9.05399
9.05805
9.06582
9.07881
9.09846
9.12575
9.16075
9.20229
9.24791
9.29415
9.33716
9.37346
9.40077
9.41848
9.42758
9.43008
9.42701
9.40985
9.3874
9.36188
9.32838
9.27594
9.17632
8.95809
8.46008
7.44592
5.99673
4.89255
4.43508
4.28697
4.22737
4.1896
4.15743
4.12707
4.09758
4.0687
4.04033
4.0124
3.98488
3.95772
3.9309
3.9044
3.87823
3.85242
3.82699
3.802
3.77751
3.7536
3.73035
3.70784
3.68616
3.66541
3.64566
3.62699
3.60947
3.59318
3.57814
3.56442
3.55204
3.54102
3.53137
3.5231
3.51622
3.51073
3.50661
3.50387
3.5025
</DataArray>
<DataArray Name="hu" type="Float32" format="ascii">
0.380462
1.14135
1.90213
2.66275
3.42312
4.18319
4.94287
5.70211
6.46084
7.21897
7.97644
8.73318
9.48913
10.2442
10.9983
11.7514
12.5035
13.2543
14.004
14.7523
15.4992
16.2447
16.9887
17.731
18.4716
19.2104
19.9471
20.6816
21.4135
22.1419
22.8656
23.582
24.2872
24.9745
25.6343
26.2541
26.8191
27.3153
27.733
28.0716
28.3426
28.5702
28.7886
29.0361
29.3469
29.7435
30.231
30.7979
31.4216
32.0604
32.7108
33.3713
33.9778
34.4712
34.6922
34.2328
32.088
26.2011
14.5408
0.618047
-7.65166
-10.1357
-10.5521
-10.4682
-10.2684
-10.0397
-9.80205
-9.56036
-9.31591
-9.06916
-8.82038
-8.56977
-8.31744
-8.06349
-7.8079
-7.5506
-7.29144
-7.03017
-6.76649
-6.50006
-6.23046
-5.95725
-5.68
-5.39828
-5.11168
-4.81982
-4.52242
-4.21925
-3.91015
-3.59509
-3.27411
-2.94739
-2.61519
-2.27786
-1.93588
-1.5898
-1.24024
-0.887918
-0.53357
-0.177994
</DataArray>
<DataArray Name="B" type="Float32" format="ascii">
-5
-5
-5
-5
-5
-5
-5
-5
-5
-5
-5
-5
-5
-5
-5
-5
-5
-5
-5
-5
-5
-5
-5
-5
-5
-5
-5
-5
-5
-5
-5
-5
-5
-5
-5
-5
-5
-5
-5
-5
-5
-5
-5
-5
-5
-5
-5
-5
-5
-5
-1
-1
-1
-1
-1
-1
-1
-1
-1
-1
-1
-1
-1
-1
-1
-1
-1
-1
-1
-1
-1
-1
-1
-1
-1
-1
-1
-1
-1
-1
-1
-1
-1
-1
-1
-1
-1
-1
-1
-1
-1
-1
-1
-1
-1
-1
-1
-1
-1
-1
</DataArray>
</CellData>
</Piece>
</RectilinearGrid>
</VTKFile>
