<?xml version="1.0"?>
<VTKFile type="RectilinearGrid">
<RectilinearGrid WholeExtent="0 100 0 0 0 0">
<Piece Extent="0 100 0 0 0 0">
<Coordinates>
<DataArray type="Float32" format="ascii">
0
10
20
30
40
50
60
70
80
90
100
110
120
130
140
150
160
170
180
190
200
210
220
230
240
250
260
270
280
290
300
310
320
330
340
350
360
370
380
390
400
410
420
430
440
450
460
470
480
490
500
510
520
530
540
550
560
570
580
590
600
610
620
630
640
650
660
670
680
690
700
710
720
730
740
750
760
770
780
790
800
810
820
830
840
850
860
870
880
890
900
910
920
930
940
950
960
970
980
990
1000
</DataArray>
<DataArray type="Float32" format="ascii">
0
</DataArray>
<DataArray type="Float32" format="ascii">
0
</DataArray>
</Coordinates>
<CellData>
<DataArray Name="h" type="Float32" format="ascii">
3.25513
3.25571
3.25687
3.25857
3.26078
3.26343
3.26648
3.26983
3.2734
3.27712
3.28089
3.28462
3.28824
3.29167
3.29485
3.29775
3.30034
3.30261
3.30456
3.3062
3.30756
3.30867
3.30957
3.3103
3.31091
3.31142
3.31191
3.31242
3.31301
3.31378
3.31482
3.31623
3.31817
3.32078
3.32424
3.32874
3.33448
3.34164
3.35041
3.361
3.37361
3.38859
3.40683
3.43102
3.4699
3.55115
3.7538
4.2496
5.21581
6.52799
7.56173
8.31114
8.6875
8.89149
9.02946
9.14358
9.24897
9.35075
9.45053
9.54872
9.64534
9.74025
9.83327
9.92424
10.013
10.0994
10.1834
10.2647
10.3434
10.4194
10.4926
10.5629
10.6304
10.695
10.7567
10.8156
10.8716
10.9248
10.9753
11.023
11.068
11.1104
11.1502
11.1874
11.2222
11.2545
11.2845
11.3121
11.3374
11.3604
11.3812
11.3998
11.4163
11.4307
11.4429
11.4531
11.4613
11.4673
11.4714
11.4734
</DataArray>
<DataArray Name="hu" type="Float32" format="ascii">
-0.0101559
-0.0306984
-0.0519035
-0.0741516
-0.0977732
-0.123001
-0.149951
-0.178641
-0.208969
-0.240717
-0.273585
-0.307172
-0.341014
-0.374616
-0.407466
-0.439043
-0.468842
-0.496404
-0.52132
-0.543255
-0.561936
-0.577163
-0.588815
-0.596831
-0.601184
-0.601862
-0.598827
-0.591968
-0.581053
-0.565689
-0.54527
-0.51896
-0.485669
-0.44405
-0.392517
-0.3293
-0.25251
-0.160214
-0.0505631
0.0780463
0.226579
0.394244
0.574976
0.745766
0.828398
0.569527
-0.792774
-5.15469
-15.2792
-30.4338
-43.8428
-51.0223
-53.8172
-54.5246
-54.3995
-53.9428
-53.3442
-52.6755
-51.9644
-51.2213
-50.45
-49.6516
-48.8261
-47.9729
-47.0913
-46.1806
-45.24
-44.2691
-43.2674
-42.2348
-41.1712
-40.0768
-38.952
-37.7972
-36.6131
-35.4005
-34.1603
-32.8936
-31.6014
-30.285
-28.9456
-27.5845
-26.203
-24.8023
-23.3839
-21.9488
-20.4986
-19.0342
-17.557
-16.0681
-14.5687
-13.0598
-11.5426
-10.0181
-8.48734
-6.9513
-5.41097
-3.86734
-2.32134
-0.773935
</DataArray>
<DataArray Name="B" type="Float32" format="ascii">
-5
-5
-5
-5
-5
-5
-5
-5
-5
-5
-5
-5
-5
-5
-5
-5
-5
-5
-5
-5
-5
-5
-5
-5
-5
-5
-5
-5
-5
-5
-5
-5
-5
-5
-5
-5
-5
-5
-5
-5
-5
-5
-5
-5
-5
-5
-5
-5
-5
-5
-1
-1
-1
-1
-1
-1
-1
-1
-1
-1
-1
-1
-1
-1
-1
-1
-1
-1
-1
-1
-1
-1
-1
-1
-1
-1
-1
-1
-1
-1
-1
-1
-1
-1
-1
-1
-1
-1
-1
-1
-1
-1
-1
-1
-1
-1
-1
-1
-1
-1
</DataArray>
</CellData>
</Piece>
</RectilinearGrid>
</VTKFile>
