<?xml version="1.0"?>
<VTKFile type="RectilinearGrid">
<RectilinearGrid WholeExtent="0 100 0 0 0 0">
<Piece Extent="0 100 0 0 0 0">
<Coordinates>
<DataArray type="Float32" format="ascii">
0
10
20
30
40
50
60
70
80
90
100
110
120
130
140
150
160
170
180
190
200
210
220
230
240
250
260
270
280
290
300
310
320
330
340
350
360
370
380
390
400
410
420
430
440
450
460
470
480
490
500
510
520
530
540
550
560
570
580
590
600
610
620
630
640
650
660
670
680
690
700
710
720
730
740
750
760
770
780
790
800
810
820
830
840
850
860
870
880
890
900
910
920
930
940
950
960
970
980
990
1000
</DataArray>
<DataArray type="Float32" format="ascii">
0
</DataArray>
<DataArray type="Float32" format="ascii">
0
</DataArray>
</Coordinates>
<CellData>
<DataArray Name="h" type="Float32" format="ascii">
6.97013
6.97332
6.97949
6.98822
6.99895
7.01104
7.02383
7.03668
7.04907
7.06058
7.07091
7.07991
7.08754
7.09384
7.09894
7.10298
7.10614
7.10859
7.11049
7.11199
7.1132
7.11421
7.1151
7.11592
7.1167
7.11747
7.11825
7.11903
7.11984
7.12066
7.1215
7.12237
7.12325
7.12415
7.12507
7.126
7.12695
7.12791
7.12888
7.12986
7.13084
7.13183
7.13284
7.13384
7.13485
7.13587
7.13688
7.1379
7.13893
7.13885
7.12749
7.11463
7.10274
7.0905
7.07794
7.06504
7.05182
7.03828
7.02444
7.01029
6.99586
6.98116
6.96622
6.95104
6.93566
6.9201
6.90441
6.88862
6.87276
6.85688
6.84103
6.82524
6.80957
6.7941
6.77888
6.76401
6.74957
6.73561
6.72223
6.70949
6.69745
6.68621
6.67581
6.66634
6.65788
6.65051
6.64431
6.63934
6.63566
6.63328
6.63216
6.63218
6.633
6.63382
6.63288
6.62716
6.61744
6.64472
6.88982
7.42295
</DataArray>
<DataArray Name="hu" type="Float32" format="ascii">
0.0636142
0.194181
0.33465
0.491258
0.669691
0.874833
1.11052
1.37935
1.68263
2.02032
2.39117
2.79293
3.22259
3.67669
4.15157
4.64363
5.14948
5.6661
6.1909
6.72176
7.25697
7.7952
8.33548
8.87709
9.41955
9.96252
10.5058
11.0492
11.5926
12.1361
12.6795
13.2228
13.7661
14.3093
14.8523
15.3953
15.9381
16.4808
17.0233
17.5656
18.1077
18.6496
19.1914
19.7328
20.274
20.815
21.3556
21.8959
22.4359
22.9609
23.4889
24.0355
24.5727
25.1091
25.6446
26.1792
26.7127
27.2452
27.7765
28.3065
28.8351
29.3621
29.8874
30.4109
30.9324
31.4516
31.9685
32.4826
32.9939
33.5021
34.007
34.5083
35.0058
35.4991
35.988
36.472
36.9507
37.424
37.8914
38.3528
38.8077
39.2561
39.6976
40.132
40.5589
40.9781
41.3893
41.7922
42.1864
42.5713
42.9461
43.3081
43.6514
43.9602
44.1932
44.2371
43.7638
41.7333
34.6519
14.8677
</DataArray>
<DataArray Name="B" type="Float32" format="ascii">
-5
-5
-5
-5
-5
-5
-5
-5
-5
-5
-5
-5
-5
-5
-5
-5
-5
-5
-5
-5
-5
-5
-5
-5
-5
-5
-5
-5
-5
-5
-5
-5
-5
-5
-5
-5
-5
-5
-5
-5
-5
-5
-5
-5
-5
-5
-5
-5
-5
-5
-1
-1
-1
-1
-1
-1
-1
-1
-1
-1
-1
-1
-1
-1
-1
-1
-1
-1
-1
-1
-1
-1
-1
-1
-1
-1
-1
-1
-1
-1
-1
-1
-1
-1
-1
-1
-1
-1
-1
-1
-1
-1
-1
-1
-1
-1
-1
-1
-1
-1
</DataArray>
</CellData>
</Piece>
</RectilinearGrid>
</VTKFile>
