<?xml version="1.0"?>
<VTKFile type="RectilinearGrid">
<RectilinearGrid WholeExtent="0 100 0 0 0 0">
<Piece Extent="0 100 0 0 0 0">
<Coordinates>
<DataArray type="Float32" format="ascii">
0
10
20
30
40
50
60
70
80
90
100
110
120
130
140
150
160
170
180
190
200
210
220
230
240
250
260
270
280
290
300
310
320
330
340
350
360
370
380
390
400
410
420
430
440
450
460
470
480
490
500
510
520
530
540
550
560
570
580
590
600
610
620
630
640
650
660
670
680
690
700
710
720
730
740
750
760
770
780
790
800
810
820
830
840
850
860
870
880
890
900
910
920
930
940
950
960
970
980
990
1000
</DataArray>
<DataArray type="Float32" format="ascii">
0
</DataArray>
<DataArray type="Float32" format="ascii">
0
</DataArray>
</Coordinates>
<CellData>
<DataArray Name="h" type="Float32" format="ascii">
9.01217
9.01212
9.01203
9.01189
9.0117
9.01147
9.01119
9.01086
9.01049
9.01008
9.00962
9.00912
9.00858
9.00799
9.00736
9.00668
9.00597
9.00521
9.00441
9.00356
9.00267
9.00174
9.00076
8.99974
8.99867
8.99758
8.99646
8.99536
8.99433
8.99351
8.99312
8.99356
8.99543
8.99964
9.00739
9.02007
9.03903
9.06523
9.09884
9.1389
9.18323
9.22869
9.27166
9.30881
9.33778
9.3577
9.36921
9.37398
9.37407
9.37011
9.35294
9.33191
9.30971
9.28359
9.24867
9.19261
9.08342
8.84062
8.28813
7.19679
5.74707
4.74358
4.35415
4.22842
4.17487
4.13888
4.10745
4.07753
4.0484
4.01982
3.99172
3.96404
3.93673
3.90977
3.88313
3.85683
3.83086
3.80526
3.78008
3.75537
3.7312
3.70767
3.68484
3.6628
3.64166
3.6215
3.60239
3.58442
3.56766
3.55216
3.53797
3.52514
3.5137
3.50366
3.49504
3.48785
3.48211
3.47779
3.47492
3.47348
</DataArray>
<DataArray Name="hu" type="Float32" format="ascii">
0.377304
1.13188
1.88636
2.64068
3.39476
4.14853
4.90194
5.6549
6.40737
7.15925
7.9105
8.66103
9.4108
10.1597
10.9077
11.6548
12.4007
13.1456
13.8893
14.6317
15.3728
16.1125
16.8506
17.5873
18.3222
19.0553
19.7863
20.5147
21.2399
21.9604
22.6739
23.3764
24.0616
24.7206
25.3416
25.9109
26.4154
26.8456
27.2001
27.4883
27.7317
27.9614
28.2133
28.5208
28.9068
29.3797
29.9321
30.5459
31.1991
31.8549
32.5182
33.1965
33.8428
34.4348
34.9015
35.0625
34.454
31.9462
25.3371
12.9513
-0.593999
-7.85102
-9.85509
-10.1464
-10.0338
-9.82805
-9.59877
-9.36196
-9.12148
-8.87841
-8.63315
-8.38593
-8.13694
-7.88628
-7.63398
-7.38001
-7.12426
-6.86655
-6.60663
-6.34417
-6.07883
-5.8102
-5.53787
-5.26144
-4.98052
-4.69475
-4.40385
-4.10757
-3.80576
-3.49838
-3.18544
-2.86709
-2.54357
-2.21521
-1.88244
-1.54578
-1.20583
-0.863235
-0.518721
-0.173039
</DataArray>
<DataArray Name="B" type="Float32" format="ascii">
-5
-5
-5
-5
-5
-5
-5
-5
-5
-5
-5
-5
-5
-5
-5
-5
-5
-5
-5
-5
-5
-5
-5
-5
-5
-5
-5
-5
-5
-5
-5
-5
-5
-5
-5
-5
-5
-5
-5
-5
-5
-5
-5
-5
-5
-5
-5
-5
-5
-5
-1
-1
-1
-1
-1
-1
-1
-1
-1
-1
-1
-1
-1
-1
-1
-1
-1
-1
-1
-1
-1
-1
-1
-1
-1
-1
-1
-1
-1
-1
-1
-1
-1
-1
-1
-1
-1
-1
-1
-1
-1
-1
-1
-1
-1
-1
-1
-1
-1
-1
</DataArray>
</CellData>
</Piece>
</RectilinearGrid>
</VTKFile>
