<?xml version="1.0"?>
<VTKFile type="RectilinearGrid">
<RectilinearGrid WholeExtent="0 100 0 0 0 0">
<Piece Extent="0 100 0 0 0 0">
<Coordinates>
<DataArray type="Float32" format="ascii">
0
10
20
30
40
50
60
70
80
90
100
110
120
130
140
150
160
170
180
190
200
210
220
230
240
250
260
270
280
290
300
310
320
330
340
350
360
370
380
390
400
410
420
430
440
450
460
470
480
490
500
510
520
530
540
550
560
570
580
590
600
610
620
630
640
650
660
670
680
690
700
710
720
730
740
750
760
770
780
790
800
810
820
830
840
850
860
870
880
890
900
910
920
930
940
950
960
970
980
990
1000
</DataArray>
<DataArray type="Float32" format="ascii">
0
</DataArray>
<DataArray type="Float32" format="ascii">
0
</DataArray>
</Coordinates>
<CellData>
<DataArray Name="h" type="Float32" format="ascii">
3.24998
3.24979
3.24942
3.2489
3.24829
3.24765
3.24702
3.24647
3.24605
3.24581
3.2458
3.24606
3.24664
3.24761
3.24905
3.25108
3.25384
3.25751
3.26232
3.26852
3.27636
3.28615
3.29815
3.31263
3.32983
3.34993
3.37305
3.39928
3.42862
3.46103
3.49643
3.5347
3.57566
3.61916
3.665
3.71299
3.76295
3.81469
3.86806
3.92288
3.97901
4.03632
4.09469
4.154
4.21415
4.27504
4.3366
4.39872
4.46133
4.52431
4.58279
4.6613
4.74537
4.82867
4.911
4.99216
5.07195
5.15023
5.22691
5.30197
5.37552
5.44797
5.52087
5.60007
5.7086
5.9321
6.51729
7.78376
9.48378
10.8621
11.6506
12.052
12.2739
12.422
12.5406
12.647
12.7478
12.8455
12.9411
13.0348
13.1266
13.2164
13.304
13.3892
13.4716
13.551
13.6271
13.6996
13.768
13.8322
13.8916
13.9461
13.9953
14.0389
14.0768
14.1086
14.1343
14.1537
14.1667
14.1732
</DataArray>
<DataArray Name="hu" type="Float32" format="ascii">
-0.0041595
-0.0122287
-0.0195706
-0.0257509
-0.0304273
-0.0333744
-0.034491
-0.033822
-0.0315412
-0.0279377
-0.0233698
-0.018232
-0.0128844
-0.00756893
-0.00234955
0.00300027
0.009067
0.0168578
0.0278734
0.0441006
0.0679937
0.102419
0.150529
0.215649
0.301106
0.41008
0.545453
0.709695
0.904761
1.13207
1.39247
1.6863
2.01341
2.37324
2.76488
3.18719
3.63882
4.11831
4.62414
5.15477
5.70867
6.28438
6.88048
7.49564
8.12867
8.77843
9.44393
10.1243
10.8187
11.526
12.2741
13.029
13.7508
14.4757
15.2045
15.9383
16.6781
17.4244
18.1778
18.9383
19.7052
20.4764
21.2441
21.9789
22.5636
22.5225
20.1155
11.6438
-3.19466
-17.0314
-24.9163
-28.0273
-28.7374
-28.4374
-27.7365
-26.8774
-25.9546
-25.0043
-24.0402
-23.0671
-22.0863
-21.0976
-20.1
-19.0921
-18.0722
-17.0387
-15.9897
-14.9234
-13.8384
-12.7333
-11.6072
-10.4596
-9.29074
-8.10112
-6.89202
-5.66526
-4.42319
-3.16868
-1.90498
-0.635628
</DataArray>
<DataArray Name="B" type="Float32" format="ascii">
-5
-5
-5
-5
-5
-5
-5
-5
-5
-5
-5
-5
-5
-5
-5
-5
-5
-5
-5
-5
-5
-5
-5
-5
-5
-5
-5
-5
-5
-5
-5
-5
-5
-5
-5
-5
-5
-5
-5
-5
-5
-5
-5
-5
-5
-5
-5
-5
-5
-5
-1
-1
-1
-1
-1
-1
-1
-1
-1
-1
-1
-1
-1
-1
-1
-1
-1
-1
-1
-1
-1
-1
-1
-1
-1
-1
-1
-1
-1
-1
-1
-1
-1
-1
-1
-1
-1
-1
-1
-1
-1
-1
-1
-1
-1
-1
-1
-1
-1
-1
</DataArray>
</CellData>
</Piece>
</RectilinearGrid>
</VTKFile>
