<?xml version="1.0"?>
<VTKFile type="RectilinearGrid">
<RectilinearGrid WholeExtent="0 100 0 0 0 0">
<Piece Extent="0 100 0 0 0 0">
<Coordinates>
<DataArray type="Float32" format="ascii">
0
10
20
30
40
50
60
70
80
90
100
110
120
130
140
150
160
170
180
190
200
210
220
230
240
250
260
270
280
290
300
310
320
330
340
350
360
370
380
390
400
410
420
430
440
450
460
470
480
490
500
510
520
530
540
550
560
570
580
590
600
610
620
630
640
650
660
670
680
690
700
710
720
730
740
750
760
770
780
790
800
810
820
830
840
850
860
870
880
890
900
910
920
930
940
950
960
970
980
990
1000
</DataArray>
<DataArray type="Float32" format="ascii">
0
</DataArray>
<DataArray type="Float32" format="ascii">
0
</DataArray>
</Coordinates>
<CellData>
<DataArray Name="h" type="Float32" format="ascii">
10.0752
10.0569
10.0202
9.96541
9.89299
9.80353
9.69798
9.57763
9.44427
9.30019
9.14833
8.99225
8.83614
8.68467
8.54277
8.41518
8.30592
8.21765
8.15114
8.10509
8.07637
8.0608
8.05407
8.05248
8.05339
8.05521
8.05713
8.05882
8.06018
8.06116
8.06166
8.0615
8.06042
8.05812
8.05443
8.04945
8.04373
8.03833
8.03458
8.03368
8.03613
8.04142
8.04812
8.05448
8.05909
8.06138
8.06157
8.06034
8.05836
8.05606
8.05311
8.04975
8.04679
8.04416
8.04183
8.03973
8.03783
8.03607
8.03443
8.03287
8.0313
8.0296
8.02747
8.0242
8.01811
8.00502
7.97451
7.90075
7.72153
7.30149
6.43029
5.10731
4.04069
3.62781
3.52935
3.51167
3.51155
3.51608
3.52285
3.53137
3.54129
3.5521
3.56311
3.57358
3.58283
3.59042
3.59619
3.60023
3.60284
3.60438
3.60521
3.60561
3.60578
3.60584
3.60587
3.60588
3.60588
3.60588
3.60588
3.60588
</DataArray>
<DataArray Name="hu" type="Float32" format="ascii">
2.49655
7.4718
12.3936
17.2268
21.9367
26.4898
30.8542
34.9998
38.8994
42.5287
45.8668
48.8967
51.6052
53.9832
56.0261
57.7348
59.1175
60.1911
60.9836
61.5336
61.8876
62.0956
62.2039
62.2507
62.2636
62.26
62.2496
62.2374
62.2255
62.2152
62.2077
62.2047
62.2083
62.2207
62.2434
62.2758
62.3139
62.3498
62.3736
62.3762
62.3535
62.3088
62.2527
62.1983
62.1564
62.1315
62.1221
62.1231
62.1293
62.1355
62.1407
62.1463
62.1493
62.1499
62.1485
62.1452
62.1401
62.1334
62.125
62.1146
62.1013
62.0828
62.0532
61.9984
61.883
61.6197
60.9911
59.4682
55.8418
47.8205
33.2271
15.7588
4.94173
1.57365
0.845955
0.689298
0.637496
0.59779
0.551518
0.495293
0.429989
0.358658
0.285747
0.216228
0.154568
0.103823
0.0651834
0.0380438
0.0205252
0.0101848
0.00463533
0.00194207
0.000766991
0.000307956
0.000144777
8.58386e-05
5.44939e-05
3.17635e-05
1.7071e-05
5.36882e-06
</DataArray>
<DataArray Name="B" type="Float32" format="ascii">
-5
-5
-5
-5
-5
-5
-5
-5
-5
-5
-5
-5
-5
-5
-5
-5
-5
-5
-5
-5
-5
-5
-5
-5
-5
-5
-5
-5
-5
-5
-5
-5
-5
-5
-5
-5
-5
-5
-5
-5
-5
-5
-5
-5
-5
-5
-5
-5
-5
-5
-1
-1
-1
-1
-1
-1
-1
-1
-1
-1
-1
-1
-1
-1
-1
-1
-1
-1
-1
-1
-1
-1
-1
-1
-1
-1
-1
-1
-1
-1
-1
-1
-1
-1
-1
-1
-1
-1
-1
-1
-1
-1
-1
-1
-1
-1
-1
-1
-1
-1
</DataArray>
</CellData>
</Piece>
</RectilinearGrid>
</VTKFile>
