<?xml version="1.0"?>
<VTKFile type="RectilinearGrid">
<RectilinearGrid WholeExtent="0 100 0 0 0 0">
<Piece Extent="0 100 0 0 0 0">
<Coordinates>
<DataArray type="Float32" format="ascii">
0
10
20
30
40
50
60
70
80
90
100
110
120
130
140
150
160
170
180
190
200
210
220
230
240
250
260
270
280
290
300
310
320
330
340
350
360
370
380
390
400
410
420
430
440
450
460
470
480
490
500
510
520
530
540
550
560
570
580
590
600
610
620
630
640
650
660
670
680
690
700
710
720
730
740
750
760
770
780
790
800
810
820
830
840
850
860
870
880
890
900
910
920
930
940
950
960
970
980
990
1000
</DataArray>
<DataArray type="Float32" format="ascii">
0
</DataArray>
<DataArray type="Float32" format="ascii">
0
</DataArray>
</Coordinates>
<CellData>
<DataArray Name="h" type="Float32" format="ascii">
3.25767
3.25828
3.25951
3.2613
3.26361
3.26638
3.26954
3.27299
3.27666
3.28043
3.28422
3.28794
3.2915
3.29484
3.29789
3.30061
3.30299
3.30501
3.30669
3.30803
3.30908
3.30987
3.31043
3.31083
3.31109
3.31127
3.31142
3.31157
3.31179
3.31214
3.3127
3.31356
3.31483
3.31664
3.31915
3.32252
3.32693
3.33259
3.33971
3.34859
3.35979
3.37476
3.39792
3.44316
3.55218
3.83253
4.47278
5.55924
6.77565
7.6829
8.06034
8.41875
8.67225
8.84337
8.97059
9.07899
9.18021
9.27853
9.37522
9.47049
9.56423
9.65624
9.74633
9.83431
9.92003
10.0034
10.0842
10.1624
10.238
10.3108
10.3809
10.4482
10.5126
10.5743
10.6332
10.6893
10.7427
10.7934
10.8415
10.887
10.9298
10.9702
11.0081
11.0436
11.0768
11.1076
11.1362
11.1625
11.1866
11.2086
11.2285
11.2463
11.262
11.2758
11.2875
11.2972
11.305
11.3108
11.3147
11.3166
</DataArray>
<DataArray Name="hu" type="Float32" format="ascii">
-0.0127167
-0.038316
-0.0643835
-0.0911704
-0.118878
-0.147628
-0.177454
-0.208297
-0.240002
-0.272343
-0.305027
-0.337704
-0.369992
-0.401499
-0.431838
-0.460626
-0.487497
-0.512122
-0.534207
-0.553514
-0.569844
-0.583047
-0.593032
-0.599744
-0.60316
-0.603278
-0.600081
-0.593488
-0.58333
-0.569304
-0.550927
-0.527512
-0.498139
-0.461631
-0.416565
-0.361325
-0.29415
-0.213242
-0.117021
-0.00470569
0.121873
0.252433
0.34938
0.288149
-0.318671
-2.55184
-8.69546
-20.8423
-36.3071
-48.3774
-54.3402
-55.9178
-55.9548
-55.5136
-54.9403
-54.312
-53.645
-52.9447
-52.214
-51.4544
-50.6663
-49.8497
-49.0044
-48.1298
-47.2254
-46.2909
-45.3259
-44.3302
-43.3038
-42.2469
-41.1596
-40.0427
-38.8965
-37.7219
-36.5196
-35.2907
-34.0361
-32.757
-31.4546
-30.13
-28.7844
-27.4191
-26.0353
-24.6343
-23.2172
-21.7852
-20.3395
-18.8812
-17.4114
-15.9311
-14.4415
-12.9434
-11.4378
-9.92574
-8.40806
-6.88568
-5.35947
-3.8303
-2.29902
-0.766482
</DataArray>
<DataArray Name="B" type="Float32" format="ascii">
-5
-5
-5
-5
-5
-5
-5
-5
-5
-5
-5
-5
-5
-5
-5
-5
-5
-5
-5
-5
-5
-5
-5
-5
-5
-5
-5
-5
-5
-5
-5
-5
-5
-5
-5
-5
-5
-5
-5
-5
-5
-5
-5
-5
-5
-5
-5
-5
-5
-5
-1
-1
-1
-1
-1
-1
-1
-1
-1
-1
-1
-1
-1
-1
-1
-1
-1
-1
-1
-1
-1
-1
-1
-1
-1
-1
-1
-1
-1
-1
-1
-1
-1
-1
-1
-1
-1
-1
-1
-1
-1
-1
-1
-1
-1
-1
-1
-1
-1
-1
</DataArray>
</CellData>
</Piece>
</RectilinearGrid>
</VTKFile>
