<?xml version="1.0"?>
<VTKFile type="RectilinearGrid">
<RectilinearGrid WholeExtent="0 100 0 0 0 0">
<Piece Extent="0 100 0 0 0 0">
<Coordinates>
<DataArray type="Float32" format="ascii">
0
10
20
30
40
50
60
70
80
90
100
110
120
130
140
150
160
170
180
190
200
210
220
230
240
250
260
270
280
290
300
310
320
330
340
350
360
370
380
390
400
410
420
430
440
450
460
470
480
490
500
510
520
530
540
550
560
570
580
590
600
610
620
630
640
650
660
670
680
690
700
710
720
730
740
750
760
770
780
790
800
810
820
830
840
850
860
870
880
890
900
910
920
930
940
950
960
970
980
990
1000
</DataArray>
<DataArray type="Float32" format="ascii">
0
</DataArray>
<DataArray type="Float32" format="ascii">
0
</DataArray>
</Coordinates>
<CellData>
<DataArray Name="h" type="Float32" format="ascii">
3.25135
3.2511
3.25063
3.24998
3.24919
3.24834
3.2475
3.24676
3.24619
3.24588
3.24588
3.24625
3.24706
3.24835
3.25015
3.25251
3.25549
3.25913
3.26351
3.26873
3.27489
3.28215
3.29068
3.30065
3.31229
3.32579
3.34137
3.35921
3.37949
3.40232
3.4278
3.45598
3.48684
3.52037
3.55648
3.59507
3.63603
3.67921
3.72447
3.77166
3.82062
3.8712
3.92326
3.97666
4.03126
4.08693
4.14355
4.20098
4.25912
4.31778
4.37461
4.45152
4.53409
4.61564
4.69601
4.77502
4.85257
4.92868
5.00367
5.07896
5.16024
5.27057
5.49738
6.09319
7.36985
9.04398
10.3642
11.104
11.4797
11.6912
11.8362
11.9547
12.0622
12.1647
12.2643
12.3618
12.4576
12.5516
12.6437
12.7336
12.8213
12.9064
12.9887
13.068
13.144
13.2165
13.2851
13.3496
13.4099
13.4657
13.5169
13.5633
13.6048
13.6413
13.6726
13.6989
13.7199
13.7357
13.7462
13.7515
</DataArray>
<DataArray Name="hu" type="Float32" format="ascii">
-0.00114181
-0.00343394
-0.00575382
-0.00810527
-0.0104809
-0.0128766
-0.0152866
-0.0177376
-0.0202917
-0.0230719
-0.026287
-0.0302022
-0.035119
-0.0413366
-0.0490893
-0.058463
-0.0693069
-0.0811509
-0.0931254
-0.10389
-0.111616
-0.113979
-0.108211
-0.0912104
-0.0596436
-0.0100999
0.0607272
0.1559
0.278102
0.429535
0.61186
0.82616
1.07298
1.35236
1.66389
2.0068
2.38004
2.78234
3.21231
3.66848
4.14937
4.6535
5.17948
5.72596
6.29174
6.8757
7.47685
8.09432
8.72733
9.37438
10.0642
10.7656
11.4354
12.1118
12.7951
13.4858
14.1842
14.8899
15.601
16.3101
16.9875
17.5111
17.3767
14.7341
5.78853
-9.37514
-23.0564
-30.6323
-33.5505
-34.1904
-33.886
-33.2082
-32.3816
-31.4925
-30.5736
-29.6369
-28.6865
-27.7228
-26.745
-25.7515
-24.7405
-23.7099
-22.6576
-21.5816
-20.48
-19.3511
-18.1934
-17.006
-15.7883
-14.5401
-13.262
-11.9549
-10.6203
-9.26012
-7.87692
-6.47353
-5.05313
-3.61922
-2.1755
-0.725833
</DataArray>
<DataArray Name="B" type="Float32" format="ascii">
-5
-5
-5
-5
-5
-5
-5
-5
-5
-5
-5
-5
-5
-5
-5
-5
-5
-5
-5
-5
-5
-5
-5
-5
-5
-5
-5
-5
-5
-5
-5
-5
-5
-5
-5
-5
-5
-5
-5
-5
-5
-5
-5
-5
-5
-5
-5
-5
-5
-5
-1
-1
-1
-1
-1
-1
-1
-1
-1
-1
-1
-1
-1
-1
-1
-1
-1
-1
-1
-1
-1
-1
-1
-1
-1
-1
-1
-1
-1
-1
-1
-1
-1
-1
-1
-1
-1
-1
-1
-1
-1
-1
-1
-1
-1
-1
-1
-1
-1
-1
</DataArray>
</CellData>
</Piece>
</RectilinearGrid>
</VTKFile>
