<?xml version="1.0"?>
<VTKFile type="RectilinearGrid">
<RectilinearGrid WholeExtent="0 100 0 0 0 0">
<Piece Extent="0 100 0 0 0 0">
<Coordinates>
<DataArray type="Float32" format="ascii">
0
10
20
30
40
50
60
70
80
90
100
110
120
130
140
150
160
170
180
190
200
210
220
230
240
250
260
270
280
290
300
310
320
330
340
350
360
370
380
390
400
410
420
430
440
450
460
470
480
490
500
510
520
530
540
550
560
570
580
590
600
610
620
630
640
650
660
670
680
690
700
710
720
730
740
750
760
770
780
790
800
810
820
830
840
850
860
870
880
890
900
910
920
930
940
950
960
970
980
990
1000
</DataArray>
<DataArray type="Float32" format="ascii">
0
</DataArray>
<DataArray type="Float32" format="ascii">
0
</DataArray>
</Coordinates>
<CellData>
<DataArray Name="h" type="Float32" format="ascii">
8.13984
8.13986
8.1399
8.13997
8.14005
8.14016
8.14029
8.14045
8.14063
8.14085
8.14112
8.14146
8.14191
8.14252
8.14339
8.14467
8.14657
8.14937
8.15345
8.15931
8.16749
8.17861
8.19327
8.21192
8.23481
8.26184
8.29245
8.32569
8.36019
8.39438
8.4267
8.45579
8.48071
8.501
8.51665
8.52809
8.53595
8.54099
8.54395
8.54548
8.54607
8.54609
8.54577
8.54524
8.54459
8.54385
8.54303
8.54215
8.5412
8.53901
8.52501
8.50926
8.49428
8.47886
8.46301
8.4467
8.42992
8.41267
8.39493
8.37668
8.35791
8.33859
8.31867
8.29802
8.2764
8.25319
8.22683
8.19341
8.14267
8.04767
7.83987
7.36511
6.39864
5.03566
4.05283
3.68148
3.5702
3.52507
3.49458
3.46756
3.44169
3.41649
3.39189
3.36792
3.34464
3.32211
3.30043
3.27969
3.25999
3.24144
3.22415
3.20822
3.19376
3.18087
3.16963
3.16014
3.15246
3.14664
3.14274
3.14079
</DataArray>
<DataArray Name="hu" type="Float32" format="ascii">
0.332381
0.997127
1.66181
2.32637
2.99079
3.65501
4.31897
4.98262
5.64587
6.30859
6.97062
7.63168
8.29135
8.94895
9.60344
10.2533
10.8964
11.5297
12.1493
12.7504
13.3272
13.8738
14.3842
14.854
15.281
15.6665
16.0161
16.3399
16.6519
16.9681
17.3045
17.6749
18.0888
18.5505
19.0596
19.6115
20.1991
20.8144
21.4495
22.0977
22.7536
23.4136
24.0752
24.7368
25.3977
26.0574
26.7156
27.3722
28.0271
28.664
29.3025
29.9597
30.6059
31.2495
31.8905
32.5289
33.1646
33.7976
34.4276
35.0546
35.6783
36.2982
36.9137
37.5231
38.1223
38.702
39.2383
39.6691
39.8311
39.2992
37.0252
30.8945
18.9688
5.22407
-2.40107
-4.46921
-4.75498
-4.65014
-4.4641
-4.26079
-4.05364
-3.84562
-3.63749
-3.42951
-3.22178
-3.01432
-2.80712
-2.60013
-2.39326
-2.18643
-1.97952
-1.77244
-1.56512
-1.35747
-1.14947
-0.941108
-0.732395
-0.523378
-0.314126
-0.104726
</DataArray>
<DataArray Name="B" type="Float32" format="ascii">
-5
-5
-5
-5
-5
-5
-5
-5
-5
-5
-5
-5
-5
-5
-5
-5
-5
-5
-5
-5
-5
-5
-5
-5
-5
-5
-5
-5
-5
-5
-5
-5
-5
-5
-5
-5
-5
-5
-5
-5
-5
-5
-5
-5
-5
-5
-5
-5
-5
-5
-1
-1
-1
-1
-1
-1
-1
-1
-1
-1
-1
-1
-1
-1
-1
-1
-1
-1
-1
-1
-1
-1
-1
-1
-1
-1
-1
-1
-1
-1
-1
-1
-1
-1
-1
-1
-1
-1
-1
-1
-1
-1
-1
-1
-1
-1
-1
-1
-1
-1
</DataArray>
</CellData>
</Piece>
</RectilinearGrid>
</VTKFile>
