<?xml version="1.0"?>
<VTKFile type="RectilinearGrid">
<RectilinearGrid WholeExtent="0 100 0 0 0 0">
<Piece Extent="0 100 0 0 0 0">
<Coordinates>
<DataArray type="Float32" format="ascii">
0
10
20
30
40
50
60
70
80
90
100
110
120
130
140
150
160
170
180
190
200
210
220
230
240
250
260
270
280
290
300
310
320
330
340
350
360
370
380
390
400
410
420
430
440
450
460
470
480
490
500
510
520
530
540
550
560
570
580
590
600
610
620
630
640
650
660
670
680
690
700
710
720
730
740
750
760
770
780
790
800
810
820
830
840
850
860
870
880
890
900
910
920
930
940
950
960
970
980
990
1000
</DataArray>
<DataArray type="Float32" format="ascii">
0
</DataArray>
<DataArray type="Float32" format="ascii">
0
</DataArray>
</Coordinates>
<CellData>
<DataArray Name="h" type="Float32" format="ascii">
11.2819
11.2534
11.1966
11.1122
11.0011
10.8647
10.7049
10.5241
10.3253
10.112
9.8882
9.65829
9.42718
9.2001
8.98252
8.78001
8.59793
8.44092
8.31232
8.21336
8.14281
8.09701
8.07057
8.0576
8.05282
8.0523
8.05357
8.05533
8.05704
8.05853
8.05974
8.06066
8.06117
8.06106
8.05997
8.05749
8.05329
8.04742
8.04056
8.03412
8.02996
8.02965
8.03363
8.04084
8.049
8.05577
8.05976
8.06086
8.05986
8.0577
8.05449
8.05052
8.04697
8.04381
8.04099
8.03844
8.03608
8.03382
8.03145
8.0286
8.02439
8.01671
8.00043
7.96283
7.87264
7.65579
7.15766
6.17191
4.8299
3.90688
3.59077
3.51828
3.50392
3.50145
3.50157
3.50262
3.50448
3.50741
3.5117
3.51764
3.52537
3.53481
3.54559
3.55705
3.56838
3.57874
3.58748
3.59428
3.59912
3.60226
3.60412
3.60511
3.60557
3.60577
3.60584
3.60587
3.60587
3.60587
3.60588
3.60588
</DataArray>
<DataArray Name="hu" type="Float32" format="ascii">
2.48166
7.42045
12.2866
17.0347
21.6237
26.0186
30.1914
34.1218
37.7971
41.2113
44.3635
47.2559
49.8914
52.2714
54.3948
56.2573
57.8532
59.1779
60.2318
61.0258
61.5835
61.942
62.1471
62.2464
62.2813
62.2825
62.2694
62.252
62.2347
62.219
62.2052
62.1935
62.1847
62.1804
62.1831
62.1961
62.2217
62.2597
62.3053
62.348
62.3738
62.3706
62.3346
62.2732
62.2032
62.1423
62.1015
62.0818
62.0774
62.0792
62.0827
62.0882
62.0909
62.0909
62.0883
62.0831
62.075
62.0631
62.0443
62.0112
61.9461
61.8054
61.482
60.7128
58.8638
54.5235
45.2182
29.4217
12.7011
3.81473
1.33585
0.822672
0.721584
0.699802
0.69165
0.683385
0.670948
0.65187
0.623905
0.585151
0.534575
0.472623
0.401655
0.325889
0.250767
0.181821
0.123435
0.0779624
0.045514
0.0243938
0.0119218
0.00528347
0.00212445
0.000792554
0.000297187
0.000131692
7.53956e-05
4.638e-05
2.58174e-05
8.93238e-06
</DataArray>
<DataArray Name="B" type="Float32" format="ascii">
-5
-5
-5
-5
-5
-5
-5
-5
-5
-5
-5
-5
-5
-5
-5
-5
-5
-5
-5
-5
-5
-5
-5
-5
-5
-5
-5
-5
-5
-5
-5
-5
-5
-5
-5
-5
-5
-5
-5
-5
-5
-5
-5
-5
-5
-5
-5
-5
-5
-5
-1
-1
-1
-1
-1
-1
-1
-1
-1
-1
-1
-1
-1
-1
-1
-1
-1
-1
-1
-1
-1
-1
-1
-1
-1
-1
-1
-1
-1
-1
-1
-1
-1
-1
-1
-1
-1
-1
-1
-1
-1
-1
-1
-1
-1
-1
-1
-1
-1
-1
</DataArray>
</CellData>
</Piece>
</RectilinearGrid>
</VTKFile>
