<?xml version="1.0"?>
<VTKFile type="RectilinearGrid">
<RectilinearGrid WholeExtent="0 100 0 0 0 0">
<Piece Extent="0 100 0 0 0 0">
<Coordinates>
<DataArray type="Float32" format="ascii">
0
10
20
30
40
50
60
70
80
90
100
110
120
130
140
150
160
170
180
190
200
210
220
230
240
250
260
270
280
290
300
310
320
330
340
350
360
370
380
390
400
410
420
430
440
450
460
470
480
490
500
510
520
530
540
550
560
570
580
590
600
610
620
630
640
650
660
670
680
690
700
710
720
730
740
750
760
770
780
790
800
810
820
830
840
850
860
870
880
890
900
910
920
930
940
950
960
970
980
990
1000
</DataArray>
<DataArray type="Float32" format="ascii">
0
</DataArray>
<DataArray type="Float32" format="ascii">
0
</DataArray>
</Coordinates>
<CellData>
<DataArray Name="h" type="Float32" format="ascii">
6.52798
6.52703
6.52509
6.52212
6.51805
6.51279
6.50627
6.49841
6.48917
6.47852
6.46649
6.45317
6.43869
6.42325
6.40708
6.39047
6.37373
6.35718
6.34111
6.32579
6.31147
6.2983
6.28643
6.2759
6.26672
6.25888
6.2523
6.24688
6.24251
6.23909
6.23648
6.23457
6.23326
6.23245
6.23206
6.232
6.23222
6.23267
6.2333
6.23408
6.23499
6.236
6.2371
6.23829
6.23955
6.24088
6.24227
6.24373
6.24525
6.24579
6.2357
6.22422
6.21389
6.2034
6.19275
6.18197
6.17108
6.16011
6.14908
6.13803
6.12698
6.11597
6.10504
6.09424
6.0836
6.07318
6.06303
6.0532
6.04374
6.03472
6.02619
6.01821
6.01083
6.00412
5.99814
5.99295
5.98866
5.98542
5.98375
5.98545
5.99745
6.04608
6.22314
6.76575
7.90617
9.30465
10.3211
10.8311
11.0425
11.1242
11.1559
11.1689
11.175
11.1785
11.1809
11.1827
11.184
11.185
11.1857
11.186
</DataArray>
<DataArray Name="hu" type="Float32" format="ascii">
0.220201
0.659394
1.09498
1.5246
1.94599
2.35705
2.75587
3.14086
3.51085
3.86515
4.20369
4.52706
4.83654
5.13409
5.4223
5.70422
5.98322
6.26279
6.54628
6.83677
7.13688
7.44866
7.77356
8.11239
8.46542
8.83239
9.21268
9.60534
10.0092
10.4231
10.8457
11.2759
11.7123
12.154
12.6
13.0494
13.5016
13.9559
14.4119
14.8691
15.3273
15.7861
16.2453
16.7049
17.1645
17.6241
18.0837
18.5431
19.0023
19.448
19.8962
20.3618
20.8179
21.273
21.7268
22.1792
22.6302
23.0794
23.5269
23.9724
24.4157
24.8567
25.2952
25.731
26.1638
26.5935
27.0198
27.4424
27.8613
28.2761
28.6866
29.0926
29.4939
29.8903
30.2816
30.6675
31.0477
31.4216
31.787
32.1364
32.4402
32.583
32.1145
29.4989
21.9947
10.5066
0.991186
-3.90502
-5.64273
-5.92948
-5.64641
-5.15249
-4.58226
-3.98456
-3.37685
-2.76527
-2.15196
-1.5377
-0.922846
-0.307651
</DataArray>
<DataArray Name="B" type="Float32" format="ascii">
-5
-5
-5
-5
-5
-5
-5
-5
-5
-5
-5
-5
-5
-5
-5
-5
-5
-5
-5
-5
-5
-5
-5
-5
-5
-5
-5
-5
-5
-5
-5
-5
-5
-5
-5
-5
-5
-5
-5
-5
-5
-5
-5
-5
-5
-5
-5
-5
-5
-5
-1
-1
-1
-1
-1
-1
-1
-1
-1
-1
-1
-1
-1
-1
-1
-1
-1
-1
-1
-1
-1
-1
-1
-1
-1
-1
-1
-1
-1
-1
-1
-1
-1
-1
-1
-1
-1
-1
-1
-1
-1
-1
-1
-1
-1
-1
-1
-1
-1
-1
</DataArray>
</CellData>
</Piece>
</RectilinearGrid>
</VTKFile>
