<?xml version="1.0"?>
<VTKFile type="RectilinearGrid">
<RectilinearGrid WholeExtent="0 100 0 0 0 0">
<Piece Extent="0 100 0 0 0 0">
<Coordinates>
<DataArray type="Float32" format="ascii">
0
10
20
30
40
50
60
70
80
90
100
110
120
130
140
150
160
170
180
190
200
210
220
230
240
250
260
270
280
290
300
310
320
330
340
350
360
370
380
390
400
410
420
430
440
450
460
470
480
490
500
510
520
530
540
550
560
570
580
590
600
610
620
630
640
650
660
670
680
690
700
710
720
730
740
750
760
770
780
790
800
810
820
830
840
850
860
870
880
890
900
910
920
930
940
950
960
970
980
990
1000
</DataArray>
<DataArray type="Float32" format="ascii">
0
</DataArray>
<DataArray type="Float32" format="ascii">
0
</DataArray>
</Coordinates>
<CellData>
<DataArray Name="h" type="Float32" format="ascii">
3.24238
3.24271
3.24336
3.24427
3.24537
3.24658
3.24786
3.24916
3.2505
3.25192
3.25356
3.25558
3.25825
3.26188
3.26683
3.27352
3.28237
3.29379
3.3082
3.32594
3.34732
3.37256
3.4018
3.43512
3.47251
3.51391
3.55918
3.60813
3.66053
3.71612
3.7746
3.83567
3.89901
3.9643
4.03124
4.09956
4.16898
4.23928
4.31025
4.38173
4.45358
4.52568
4.59794
4.67028
4.74265
4.815
4.88731
4.95955
5.03171
5.1038
5.16374
5.24258
5.32621
5.40973
5.49311
5.57621
5.65885
5.74076
5.82167
5.90132
5.97945
6.05589
6.13052
6.2033
6.27426
6.34348
6.4111
6.47737
6.54284
6.60922
6.68272
6.78653
7.00341
7.56916
8.81647
10.5707
12.0742
12.9699
13.4257
13.6652
13.8126
13.9222
14.0156
14.1013
14.1822
14.2595
14.3334
14.4039
14.4707
14.5337
14.5924
14.6467
14.6961
14.7403
14.7791
14.8119
14.8386
14.8589
14.8726
14.8794
</DataArray>
<DataArray Name="hu" type="Float32" format="ascii">
-0.00316905
-0.00930135
-0.0148327
-0.0193752
-0.0225702
-0.0240843
-0.0235538
-0.0205604
-0.0145489
-0.00475315
0.00987686
0.0307677
0.0597604
0.0991308
0.151538
0.219934
0.307446
0.417194
0.552109
0.714766
0.907259
1.13108
1.3871
1.67561
1.99636
2.3487
2.73169
3.14421
3.5851
4.05326
4.54767
5.06747
5.61193
6.18042
6.77239
7.38732
8.02469
8.68391
9.36437
10.0654
10.7861
11.5258
12.2836
13.0585
13.8497
14.6563
15.4773
16.3118
17.1591
18.0186
18.914
19.8076
20.6699
21.5286
22.384
23.2371
24.089
24.9411
25.7948
26.6515
27.5123
28.3781
29.2492
30.1257
31.0071
31.8927
32.7813
33.6715
34.5601
35.439
36.2793
36.9722
37.0939
35.1097
27.5245
13.299
-0.930949
-9.56858
-13.1867
-14.1309
-13.9222
-13.2608
-12.4343
-11.5566
-10.6727
-9.80097
-8.94936
-8.12197
-7.3212
-6.54867
-5.80538
-5.09173
-4.40752
-3.7518
-3.12294
-2.51849
-1.93526
-1.36939
-0.816357
-0.27123
</DataArray>
<DataArray Name="B" type="Float32" format="ascii">
-5
-5
-5
-5
-5
-5
-5
-5
-5
-5
-5
-5
-5
-5
-5
-5
-5
-5
-5
-5
-5
-5
-5
-5
-5
-5
-5
-5
-5
-5
-5
-5
-5
-5
-5
-5
-5
-5
-5
-5
-5
-5
-5
-5
-5
-5
-5
-5
-5
-5
-1
-1
-1
-1
-1
-1
-1
-1
-1
-1
-1
-1
-1
-1
-1
-1
-1
-1
-1
-1
-1
-1
-1
-1
-1
-1
-1
-1
-1
-1
-1
-1
-1
-1
-1
-1
-1
-1
-1
-1
-1
-1
-1
-1
-1
-1
-1
-1
-1
-1
</DataArray>
</CellData>
</Piece>
</RectilinearGrid>
</VTKFile>
