<?xml version="1.0"?>
<VTKFile type="RectilinearGrid">
<RectilinearGrid WholeExtent="0 100 0 0 0 0">
<Piece Extent="0 100 0 0 0 0">
<Coordinates>
<DataArray type="Float32" format="ascii">
0
10
20
30
40
50
60
70
80
90
100
110
120
130
140
150
160
170
180
190
200
210
220
230
240
250
260
270
280
290
300
310
320
330
340
350
360
370
380
390
400
410
420
430
440
450
460
470
480
490
500
510
520
530
540
550
560
570
580
590
600
610
620
630
640
650
660
670
680
690
700
710
720
730
740
750
760
770
780
790
800
810
820
830
840
850
860
870
880
890
900
910
920
930
940
950
960
970
980
990
1000
</DataArray>
<DataArray type="Float32" format="ascii">
0
</DataArray>
<DataArray type="Float32" format="ascii">
0
</DataArray>
</Coordinates>
<CellData>
<DataArray Name="h" type="Float32" format="ascii">
3.25017
3.24997
3.24958
3.24903
3.24839
3.2477
3.24703
3.24645
3.246
3.24573
3.24571
3.24596
3.24654
3.24752
3.24898
3.25101
3.25377
3.2574
3.26213
3.26819
3.27583
3.28534
3.29697
3.311
3.32766
3.34712
3.36954
3.395
3.42352
3.45509
3.48962
3.527
3.5671
3.60974
3.65476
3.70196
3.75116
3.80219
3.85487
3.90906
3.9646
4.02135
4.07919
4.13802
4.19771
4.25818
4.31932
4.38106
4.44331
4.50594
4.56431
4.64272
4.7267
4.80989
4.89209
4.97309
5.0527
5.1308
5.20729
5.28218
5.35562
5.42818
5.50199
5.58532
5.71059
5.99414
6.73114
8.16693
9.84885
11.0696
11.7317
12.0703
12.266
12.4039
12.5184
12.6231
12.7231
12.8205
12.9158
13.0093
13.1009
13.1905
13.2778
13.3626
13.4446
13.5236
13.5993
13.6712
13.7391
13.8026
13.8614
13.9153
13.9639
14.007
14.0443
14.0757
14.101
14.1201
14.1329
14.1393
</DataArray>
<DataArray Name="hu" type="Float32" format="ascii">
-0.00392524
-0.0115494
-0.0185058
-0.0243971
-0.0289078
-0.0318247
-0.0330495
-0.0326196
-0.030699
-0.0275608
-0.0235587
-0.0190851
-0.0145107
-0.0101075
-0.00597572
-0.00194167
0.00251268
0.00832305
0.016921
0.0302312
0.0506612
0.0810445
0.124529
0.184462
0.264216
0.367034
0.495876
0.653297
0.841344
1.06151
1.31473
1.60137
1.92136
2.27416
2.65889
3.07441
3.5194
3.99238
4.49184
5.01622
5.564
6.1337
6.72389
7.33326
7.96059
8.60475
9.26475
9.93971
10.6289
11.331
12.074
12.8242
13.5414
14.262
14.9868
15.7169
16.453
17.196
17.946
18.703
19.4663
20.2328
20.9918
21.7016
22.1948
21.7946
18.211
7.76132
-7.67105
-20.1447
-26.5539
-28.8484
-29.2053
-28.7659
-28.012
-27.1335
-26.2039
-25.2513
-24.2863
-23.3123
-22.33
-21.339
-20.338
-19.3256
-18.2999
-17.2593
-16.2018
-15.1257
-14.0295
-12.9119
-11.7722
-10.6099
-9.42537
-8.21928
-6.99304
-5.74859
-4.48841
-3.21548
-1.93314
-0.645025
</DataArray>
<DataArray Name="B" type="Float32" format="ascii">
-5
-5
-5
-5
-5
-5
-5
-5
-5
-5
-5
-5
-5
-5
-5
-5
-5
-5
-5
-5
-5
-5
-5
-5
-5
-5
-5
-5
-5
-5
-5
-5
-5
-5
-5
-5
-5
-5
-5
-5
-5
-5
-5
-5
-5
-5
-5
-5
-5
-5
-1
-1
-1
-1
-1
-1
-1
-1
-1
-1
-1
-1
-1
-1
-1
-1
-1
-1
-1
-1
-1
-1
-1
-1
-1
-1
-1
-1
-1
-1
-1
-1
-1
-1
-1
-1
-1
-1
-1
-1
-1
-1
-1
-1
-1
-1
-1
-1
-1
-1
</DataArray>
</CellData>
</Piece>
</RectilinearGrid>
</VTKFile>
