<?xml version="1.0"?>
<VTKFile type="RectilinearGrid">
<RectilinearGrid WholeExtent="0 100 0 0 0 0">
<Piece Extent="0 100 0 0 0 0">
<Coordinates>
<DataArray type="Float32" format="ascii">
0
10
20
30
40
50
60
70
80
90
100
110
120
130
140
150
160
170
180
190
200
210
220
230
240
250
260
270
280
290
300
310
320
330
340
350
360
370
380
390
400
410
420
430
440
450
460
470
480
490
500
510
520
530
540
550
560
570
580
590
600
610
620
630
640
650
660
670
680
690
700
710
720
730
740
750
760
770
780
790
800
810
820
830
840
850
860
870
880
890
900
910
920
930
940
950
960
970
980
990
1000
</DataArray>
<DataArray type="Float32" format="ascii">
0
</DataArray>
<DataArray type="Float32" format="ascii">
0
</DataArray>
</Coordinates>
<CellData>
<DataArray Name="h" type="Float32" format="ascii">
5.68046
5.68048
5.68052
5.68058
5.68067
5.68077
5.68089
5.68103
5.68118
5.68134
5.6815
5.68165
5.68178
5.68187
5.68192
5.68188
5.68174
5.68146
5.68099
5.68028
5.67929
5.67794
5.67617
5.6739
5.67107
5.66758
5.66338
5.6584
5.65258
5.64589
5.63831
5.62985
5.62055
5.61048
5.59973
5.58844
5.57676
5.56486
5.55292
5.54114
5.52971
5.5188
5.50856
5.49912
5.49059
5.48305
5.47654
5.47108
5.46666
5.46232
5.44989
5.43631
5.42468
5.41391
5.40392
5.39465
5.38605
5.37809
5.37073
5.36399
5.35792
5.3528
5.34969
5.35254
5.37636
5.47539
5.81101
6.64113
7.88644
8.96112
9.55696
9.81423
9.91596
9.95683
9.97494
9.98454
9.99084
9.99579
10.0001
10.0041
10.0078
10.0113
10.0145
10.0176
10.0205
10.0232
10.0257
10.028
10.0302
10.0321
10.0339
10.0355
10.0369
10.0382
10.0392
10.0401
10.0408
10.0414
10.0417
10.0419
</DataArray>
<DataArray Name="hu" type="Float32" format="ascii">
0.202079
0.60624
1.0104
1.41455
1.81868
2.22277
2.62682
3.03078
3.43463
3.8383
4.24172
4.64478
5.04736
5.44926
5.85026
6.25008
6.64836
7.0447
7.43856
7.82937
8.21644
8.59901
8.97623
9.34721
9.71099
10.0666
10.4132
10.7498
11.0758
11.3905
11.6937
11.9854
12.2657
12.5354
12.7954
13.0471
13.2922
13.5326
13.7702
14.0073
14.2458
14.4879
14.7351
14.9889
15.2506
15.5208
15.8
16.0885
16.3859
16.6806
16.9839
17.3099
17.6366
17.969
18.3059
18.6463
18.9892
19.3335
19.6784
20.023
20.3663
20.7062
21.0372
21.3399
21.541
21.3609
19.8075
14.538
4.59232
-5.42734
-11.3614
-13.7396
-14.3438
-14.2331
-13.8536
-13.3742
-12.8571
-12.3251
-11.7868
-11.2455
-10.7025
-10.1583
-9.61322
-9.06743
-8.52104
-7.9741
-7.42662
-6.87862
-6.33011
-5.78111
-5.23168
-4.68188
-4.13177
-3.5814
-3.0308
-2.48002
-1.92907
-1.378
-0.826835
-0.275617
</DataArray>
<DataArray Name="B" type="Float32" format="ascii">
-5
-5
-5
-5
-5
-5
-5
-5
-5
-5
-5
-5
-5
-5
-5
-5
-5
-5
-5
-5
-5
-5
-5
-5
-5
-5
-5
-5
-5
-5
-5
-5
-5
-5
-5
-5
-5
-5
-5
-5
-5
-5
-5
-5
-5
-5
-5
-5
-5
-5
-1
-1
-1
-1
-1
-1
-1
-1
-1
-1
-1
-1
-1
-1
-1
-1
-1
-1
-1
-1
-1
-1
-1
-1
-1
-1
-1
-1
-1
-1
-1
-1
-1
-1
-1
-1
-1
-1
-1
-1
-1
-1
-1
-1
-1
-1
-1
-1
-1
-1
</DataArray>
</CellData>
</Piece>
</RectilinearGrid>
</VTKFile>
