<?xml version="1.0"?>
<VTKFile type="RectilinearGrid">
<RectilinearGrid WholeExtent="0 100 0 0 0 0">
<Piece Extent="0 100 0 0 0 0">
<Coordinates>
<DataArray type="Float32" format="ascii">
0
10
20
30
40
50
60
70
80
90
100
110
120
130
140
150
160
170
180
190
200
210
220
230
240
250
260
270
280
290
300
310
320
330
340
350
360
370
380
390
400
410
420
430
440
450
460
470
480
490
500
510
520
530
540
550
560
570
580
590
600
610
620
630
640
650
660
670
680
690
700
710
720
730
740
750
760
770
780
790
800
810
820
830
840
850
860
870
880
890
900
910
920
930
940
950
960
970
980
990
1000
</DataArray>
<DataArray type="Float32" format="ascii">
0
</DataArray>
<DataArray type="Float32" format="ascii">
0
</DataArray>
</Coordinates>
<CellData>
<DataArray Name="h" type="Float32" format="ascii">
3.28939
3.28978
3.29053
3.29163
3.29303
3.29467
3.29651
3.29848
3.30051
3.30254
3.30452
3.3064
3.30812
3.30964
3.31095
3.31201
3.3128
3.31333
3.31358
3.31356
3.31329
3.31278
3.31205
3.31111
3.31001
3.30876
3.30739
3.30594
3.30445
3.30302
3.30196
3.30211
3.3061
3.32172
3.37129
3.51367
3.8744
4.60701
5.66657
6.68881
7.36682
7.71183
7.86419
7.92842
7.95712
7.97306
7.98539
7.99761
8.01104
8.0262
8.06039
8.10453
8.15921
8.23376
8.33102
8.44348
8.55922
8.66874
8.76773
8.85621
8.93635
9.01059
9.08082
9.14816
9.21317
9.27609
9.33696
9.3958
9.45258
9.50728
9.5599
9.61044
9.65891
9.70532
9.74968
9.79204
9.8324
9.8708
9.90727
9.94184
9.97455
10.0054
10.0345
10.0618
10.0873
10.1111
10.1332
10.1536
10.1724
10.1896
10.2051
10.219
10.2314
10.2421
10.2513
10.259
10.2651
10.2697
10.2728
10.2743
</DataArray>
<DataArray Name="hu" type="Float32" format="ascii">
-0.0289834
-0.08654
-0.142887
-0.197275
-0.249015
-0.297516
-0.342297
-0.383
-0.419407
-0.451413
-0.479044
-0.502423
-0.521776
-0.537408
-0.54967
-0.55895
-0.565645
-0.570146
-0.57281
-0.573949
-0.573815
-0.572592
-0.570373
-0.567189
-0.562993
-0.557679
-0.551096
-0.543113
-0.533723
-0.523428
-0.51441
-0.514051
-0.54561
-0.679636
-1.12274
-2.44518
-6.00743
-13.9867
-27.0145
-41.1536
-51.4716
-57.0175
-59.4356
-60.309
-60.5092
-60.4248
-60.2119
-59.9284
-59.5942
-59.215
-58.7785
-58.2945
-57.7573
-57.0829
-56.2549
-55.3099
-54.3075
-53.2966
-52.3008
-51.3214
-50.3481
-49.3686
-48.3731
-47.3561
-46.3151
-45.2495
-44.1599
-43.0472
-41.9124
-40.7568
-39.5813
-38.3873
-37.1756
-35.9473
-34.7034
-33.4448
-32.1726
-30.8874
-29.5902
-28.2817
-26.9627
-25.6339
-24.296
-22.9497
-21.5955
-20.234
-18.866
-17.4918
-16.1121
-14.7273
-13.338
-11.9446
-10.5477
-9.14758
-7.74477
-6.33969
-4.93277
-3.52442
-2.11505
-0.705083
</DataArray>
<DataArray Name="B" type="Float32" format="ascii">
-5
-5
-5
-5
-5
-5
-5
-5
-5
-5
-5
-5
-5
-5
-5
-5
-5
-5
-5
-5
-5
-5
-5
-5
-5
-5
-5
-5
-5
-5
-5
-5
-5
-5
-5
-5
-5
-5
-5
-5
-5
-5
-5
-5
-5
-5
-5
-5
-5
-5
-1
-1
-1
-1
-1
-1
-1
-1
-1
-1
-1
-1
-1
-1
-1
-1
-1
-1
-1
-1
-1
-1
-1
-1
-1
-1
-1
-1
-1
-1
-1
-1
-1
-1
-1
-1
-1
-1
-1
-1
-1
-1
-1
-1
-1
-1
-1
-1
-1
-1
</DataArray>
</CellData>
</Piece>
</RectilinearGrid>
</VTKFile>
