<?xml version="1.0"?>
<VTKFile type="RectilinearGrid">
<RectilinearGrid WholeExtent="0 100 0 0 0 0">
<Piece Extent="0 100 0 0 0 0">
<Coordinates>
<DataArray type="Float32" format="ascii">
0
10
20
30
40
50
60
70
80
90
100
110
120
130
140
150
160
170
180
190
200
210
220
230
240
250
260
270
280
290
300
310
320
330
340
350
360
370
380
390
400
410
420
430
440
450
460
470
480
490
500
510
520
530
540
550
560
570
580
590
600
610
620
630
640
650
660
670
680
690
700
710
720
730
740
750
760
770
780
790
800
810
820
830
840
850
860
870
880
890
900
910
920
930
940
950
960
970
980
990
1000
</DataArray>
<DataArray type="Float32" format="ascii">
0
</DataArray>
<DataArray type="Float32" format="ascii">
0
</DataArray>
</Coordinates>
<CellData>
<DataArray Name="h" type="Float32" format="ascii">
11.6366
11.636
11.6348
11.6329
11.6305
11.6274
11.6238
11.6195
11.6145
11.6089
11.6026
11.5956
11.5878
11.5793
11.57
11.5597
11.5482
11.5349
11.5184
11.4956
11.4601
11.3972
11.2763
11.0358
10.5727
9.77885
8.69245
7.6178
6.86216
6.44939
6.24766
6.14588
6.0861
6.04304
6.00642
5.9722
5.93882
5.90571
5.87266
5.83964
5.80666
5.77375
5.74097
5.70836
5.67595
5.64378
5.61189
5.58029
5.54901
5.51721
5.49118
5.45963
5.42859
5.39823
5.36844
5.33912
5.3102
5.28162
5.25335
5.22538
5.19775
5.1705
5.14373
5.11753
5.09203
5.06737
5.04371
5.02122
5.00007
4.98044
4.96248
4.94635
4.93218
4.92008
4.91014
4.90241
4.8969
4.89359
4.89239
4.89321
4.89588
4.9002
4.90597
4.91294
4.92086
4.92947
4.93854
4.94781
4.95707
4.96614
4.97482
4.98297
4.99047
4.99721
5.00312
5.00812
5.01217
5.01523
5.01729
5.01832
</DataArray>
<DataArray Name="hu" type="Float32" format="ascii">
0.473148
1.41919
2.36444
3.30836
4.25045
5.19018
6.12702
7.06043
7.98989
8.91486
9.8348
10.7491
11.6571
12.5579
13.4502
14.3319
15.1988
16.0421
16.8427
17.5586
18.0968
18.255
17.607
15.3301
10.146
1.0495
-10.6793
-21.0695
-27.4017
-30.2596
-31.2437
-31.4044
-31.2321
-30.9305
-30.5806
-30.2142
-29.8435
-29.4732
-29.1047
-28.7385
-28.3745
-28.0125
-27.6522
-27.2933
-26.9356
-26.5788
-26.2228
-25.8673
-25.5124
-25.165
-24.8183
-24.4625
-24.0994
-23.7337
-23.3656
-22.9958
-22.6246
-22.2522
-21.8788
-21.5044
-21.1287
-20.7515
-20.3724
-19.9907
-19.6057
-19.2166
-18.8226
-18.4226
-18.0156
-17.6005
-17.1764
-16.7421
-16.2966
-15.8392
-15.3689
-14.8852
-14.3874
-13.8753
-13.3489
-12.8081
-12.2535
-11.6856
-11.1051
-10.5132
-9.91075
-9.29905
-8.67929
-8.05269
-7.42041
-6.78355
-6.14314
-5.50005
-4.85506
-4.20878
-3.56172
-2.91424
-2.2666
-1.61894
-0.971326
-0.323767
</DataArray>
<DataArray Name="B" type="Float32" format="ascii">
-5
-5
-5
-5
-5
-5
-5
-5
-5
-5
-5
-5
-5
-5
-5
-5
-5
-5
-5
-5
-5
-5
-5
-5
-5
-5
-5
-5
-5
-5
-5
-5
-5
-5
-5
-5
-5
-5
-5
-5
-5
-5
-5
-5
-5
-5
-5
-5
-5
-5
-1
-1
-1
-1
-1
-1
-1
-1
-1
-1
-1
-1
-1
-1
-1
-1
-1
-1
-1
-1
-1
-1
-1
-1
-1
-1
-1
-1
-1
-1
-1
-1
-1
-1
-1
-1
-1
-1
-1
-1
-1
-1
-1
-1
-1
-1
-1
-1
-1
-1
</DataArray>
</CellData>
</Piece>
</RectilinearGrid>
</VTKFile>
