<?xml version="1.0"?>
<VTKFile type="RectilinearGrid">
<RectilinearGrid WholeExtent="0 100 0 0 0 0">
<Piece Extent="0 100 0 0 0 0">
<Coordinates>
<DataArray type="Float32" format="ascii">
0
10
20
30
40
50
60
70
80
90
100
110
120
130
140
150
160
170
180
190
200
210
220
230
240
250
260
270
280
290
300
310
320
330
340
350
360
370
380
390
400
410
420
430
440
450
460
470
480
490
500
510
520
530
540
550
560
570
580
590
600
610
620
630
640
650
660
670
680
690
700
710
720
730
740
750
760
770
780
790
800
810
820
830
840
850
860
870
880
890
900
910
920
930
940
950
960
970
980
990
1000
</DataArray>
<DataArray type="Float32" format="ascii">
0
</DataArray>
<DataArray type="Float32" format="ascii">
0
</DataArray>
</Coordinates>
<CellData>
<DataArray Name="h" type="Float32" format="ascii">
6.35488
6.35455
6.35387
6.35281
6.35128
6.34922
6.34653
6.3431
6.33882
6.33357
6.32725
6.31976
6.31105
6.30107
6.28985
6.27744
6.26394
6.24953
6.23441
6.21882
6.20303
6.18733
6.17199
6.15727
6.14339
6.13052
6.11879
6.1083
6.09906
6.09107
6.08429
6.07864
6.07404
6.07038
6.06756
6.06547
6.06402
6.06311
6.06266
6.06259
6.06284
6.06336
6.06411
6.06505
6.06615
6.0674
6.06877
6.07025
6.07184
6.0725
6.06272
6.05163
6.04175
6.03174
6.02164
6.01147
6.00125
5.99101
5.98078
5.97058
5.96047
5.95047
5.94064
5.931
5.92162
5.91255
5.90382
5.89551
5.88765
5.88031
5.87354
5.8674
5.86196
5.85731
5.85369
5.85177
5.85403
5.86989
5.93447
6.16478
6.82387
8.05438
9.37896
10.2472
10.6581
10.825
10.8901
10.9162
10.9277
10.9337
10.9376
10.9405
10.9428
10.9448
10.9465
10.9479
10.949
10.9498
10.9503
10.9506
</DataArray>
<DataArray Name="hu" type="Float32" format="ascii">
0.225244
0.67518
1.12344
1.56888
2.01026
2.44629
2.8756
3.29675
3.70826
4.10873
4.49681
4.87137
5.23154
5.57684
5.90727
6.22335
6.52622
6.81758
7.09967
7.37519
7.64711
7.91858
8.19268
8.47229
8.75997
9.05777
9.36724
9.68935
10.0246
10.3729
10.734
11.107
11.4912
11.8853
12.2882
12.6989
13.1162
13.539
13.9663
14.3975
14.8316
15.268
15.7063
16.1459
16.5865
17.0278
17.4694
17.9113
18.3532
18.7821
19.2135
19.662
20.1011
20.539
20.9755
21.4105
21.8438
22.2753
22.7048
23.1322
23.5572
23.9796
24.3993
24.8161
25.2297
25.64
26.0467
26.4496
26.8485
27.2431
27.6334
28.0191
28.3999
28.7754
29.1448
29.5051
29.8456
30.1251
30.1834
29.4086
25.9064
17.2387
5.86569
-2.43741
-6.34362
-7.60737
-7.7167
-7.37907
-6.87536
-6.31061
-5.72327
-5.12721
-4.52744
-3.92586
-3.32322
-2.71987
-2.11598
-1.51168
-0.907111
-0.302388
</DataArray>
<DataArray Name="B" type="Float32" format="ascii">
-5
-5
-5
-5
-5
-5
-5
-5
-5
-5
-5
-5
-5
-5
-5
-5
-5
-5
-5
-5
-5
-5
-5
-5
-5
-5
-5
-5
-5
-5
-5
-5
-5
-5
-5
-5
-5
-5
-5
-5
-5
-5
-5
-5
-5
-5
-5
-5
-5
-5
-1
-1
-1
-1
-1
-1
-1
-1
-1
-1
-1
-1
-1
-1
-1
-1
-1
-1
-1
-1
-1
-1
-1
-1
-1
-1
-1
-1
-1
-1
-1
-1
-1
-1
-1
-1
-1
-1
-1
-1
-1
-1
-1
-1
-1
-1
-1
-1
-1
-1
</DataArray>
</CellData>
</Piece>
</RectilinearGrid>
</VTKFile>
