<?xml version="1.0"?>
<VTKFile type="RectilinearGrid">
<RectilinearGrid WholeExtent="0 100 0 0 0 0">
<Piece Extent="0 100 0 0 0 0">
<Coordinates>
<DataArray type="Float32" format="ascii">
0
10
20
30
40
50
60
70
80
90
100
110
120
130
140
150
160
170
180
190
200
210
220
230
240
250
260
270
280
290
300
310
320
330
340
350
360
370
380
390
400
410
420
430
440
450
460
470
480
490
500
510
520
530
540
550
560
570
580
590
600
610
620
630
640
650
660
670
680
690
700
710
720
730
740
750
760
770
780
790
800
810
820
830
840
850
860
870
880
890
900
910
920
930
940
950
960
970
980
990
1000
</DataArray>
<DataArray type="Float32" format="ascii">
0
</DataArray>
<DataArray type="Float32" format="ascii">
0
</DataArray>
</Coordinates>
<CellData>
<DataArray Name="h" type="Float32" format="ascii">
6.94588
6.94634
6.94723
6.94846
6.94994
6.95155
6.9532
6.95477
6.95621
6.95748
6.95854
6.95941
6.96011
6.96067
6.96113
6.96152
6.96188
6.96223
6.96261
6.96302
6.96347
6.96397
6.96453
6.96513
6.96577
6.96646
6.96718
6.96794
6.96874
6.96956
6.97041
6.97128
6.97218
6.9731
6.97404
6.975
6.97597
6.97696
6.97797
6.97899
6.98002
6.98106
6.98212
6.98319
6.98426
6.98535
6.98644
6.98755
6.98866
6.98869
6.97752
6.96486
6.95318
6.94118
6.92887
6.91626
6.90335
6.89015
6.87667
6.86293
6.84894
6.83472
6.8203
6.80571
6.79097
6.77611
6.76118
6.74621
6.73123
6.7163
6.70147
6.68679
6.67232
6.65814
6.64432
6.63093
6.61805
6.60574
6.59408
6.58312
6.57295
6.56363
6.55525
6.54786
6.54156
6.53642
6.5325
6.52986
6.52853
6.52854
6.52995
6.53306
6.53954
6.55815
6.63044
6.91793
7.79564
9.3632
10.8272
11.5482
</DataArray>
<DataArray Name="hu" type="Float32" format="ascii">
0.0365167
0.114872
0.208799
0.327419
0.478119
0.666189
0.894691
1.16453
1.47475
1.82289
2.20542
2.61818
3.05675
3.51679
3.9942
4.48535
4.98712
5.49691
6.01261
6.5326
7.0556
7.58072
8.10727
8.63479
9.16295
9.69153
10.2204
10.7494
11.2785
11.8076
12.3368
12.866
13.3952
13.9243
14.4534
14.9825
15.5115
16.0403
16.5691
17.0978
17.6264
18.1548
18.683
19.2111
19.7389
20.2665
20.7939
21.321
21.8479
22.36
22.875
23.4086
23.9328
24.4561
24.9786
25.5002
26.0208
26.5402
27.0583
27.5751
28.0905
28.6042
29.1161
29.626
30.1338
30.6393
31.1422
31.6423
32.1395
32.6335
33.124
33.6108
34.0936
34.572
35.0458
35.5145
35.978
36.4359
36.8881
37.3341
37.7739
38.2071
38.6335
39.0528
39.4648
39.8692
40.2659
40.6546
41.0354
41.4081
41.7725
42.1276
42.4668
42.7563
42.8277
41.8878
37.161
25.6012
12.0486
3.07942
</DataArray>
<DataArray Name="B" type="Float32" format="ascii">
-5
-5
-5
-5
-5
-5
-5
-5
-5
-5
-5
-5
-5
-5
-5
-5
-5
-5
-5
-5
-5
-5
-5
-5
-5
-5
-5
-5
-5
-5
-5
-5
-5
-5
-5
-5
-5
-5
-5
-5
-5
-5
-5
-5
-5
-5
-5
-5
-5
-5
-1
-1
-1
-1
-1
-1
-1
-1
-1
-1
-1
-1
-1
-1
-1
-1
-1
-1
-1
-1
-1
-1
-1
-1
-1
-1
-1
-1
-1
-1
-1
-1
-1
-1
-1
-1
-1
-1
-1
-1
-1
-1
-1
-1
-1
-1
-1
-1
-1
-1
</DataArray>
</CellData>
</Piece>
</RectilinearGrid>
</VTKFile>
