<?xml version="1.0"?>
<VTKFile type="RectilinearGrid">
<RectilinearGrid WholeExtent="0 100 0 0 0 0">
<Piece Extent="0 100 0 0 0 0">
<Coordinates>
<DataArray type="Float32" format="ascii">
0
10
20
30
40
50
60
70
80
90
100
110
120
130
140
150
160
170
180
190
200
210
220
230
240
250
260
270
280
290
300
310
320
330
340
350
360
370
380
390
400
410
420
430
440
450
460
470
480
490
500
510
520
530
540
550
560
570
580
590
600
610
620
630
640
650
660
670
680
690
700
710
720
730
740
750
760
770
780
790
800
810
820
830
840
850
860
870
880
890
900
910
920
930
940
950
960
970
980
990
1000
</DataArray>
<DataArray type="Float32" format="ascii">
0
</DataArray>
<DataArray type="Float32" format="ascii">
0
</DataArray>
</Coordinates>
<CellData>
<DataArray Name="h" type="Float32" format="ascii">
3.78475
3.79942
3.82847
3.87125
3.92687
3.99411
4.07158
4.15774
4.25102
4.3499
4.45301
4.55917
4.66739
4.77692
4.88715
4.99764
5.10807
5.21823
5.32801
5.43738
5.54637
5.65504
5.76347
5.87169
5.97966
6.08723
6.19415
6.30008
6.40461
6.50733
6.60787
6.70594
6.80131
6.89386
6.98348
7.0701
7.15365
7.23403
7.31111
7.38473
7.45473
7.52094
7.5832
7.64138
7.6954
7.74527
7.79106
7.83293
7.87116
7.90625
7.92727
7.94857
7.96646
7.98162
7.9943
8.00477
8.01333
8.02029
8.02598
8.03073
8.03489
8.03885
8.04301
8.04777
8.05352
8.06062
8.06932
8.07975
8.09182
8.10525
8.11953
8.13403
8.14804
8.16091
8.17214
8.18143
8.1887
8.19407
8.1978
8.20021
8.20163
8.20236
8.20263
8.20261
8.20241
8.2021
8.2017
8.20122
8.20062
8.19976
8.19831
8.1954
8.18876
8.17266
8.13255
8.0325
7.78878
7.2378
6.21688
5.1183
</DataArray>
<DataArray Name="hu" type="Float32" format="ascii">
0.570139
1.70883
2.84322
3.97172
5.09447
6.21349
7.33257
8.45676
9.59177
10.7432
11.9158
13.1133
14.3382
15.5916
16.8737
18.1837
19.5199
20.8804
22.2623
23.6626
25.0778
26.5041
27.9378
29.3755
30.8145
32.2528
33.6889
35.1221
36.5518
37.9772
39.3969
40.8087
42.2096
43.5954
44.9616
46.3031
47.6147
48.891
50.1269
51.3174
52.4575
53.5426
54.5681
55.53
56.4242
57.2473
57.9963
58.6689
59.2633
59.7831
60.2304
60.6192
60.9552
61.2402
61.4786
61.6751
61.8344
61.9613
62.0602
62.1349
62.189
62.2251
62.2453
62.2511
62.2432
62.2221
62.1882
62.1423
62.0855
62.0199
61.9482
61.874
61.8009
61.7324
61.6712
61.6191
61.5765
61.5431
61.5177
61.4986
61.4842
61.473
61.4638
61.4556
61.4479
61.4401
61.4319
61.4228
61.4115
61.3952
61.3668
61.3082
61.1727
60.842
60.0194
57.9852
53.1513
42.8526
25.8433
7.70375
</DataArray>
<DataArray Name="B" type="Float32" format="ascii">
-5
-5
-5
-5
-5
-5
-5
-5
-5
-5
-5
-5
-5
-5
-5
-5
-5
-5
-5
-5
-5
-5
-5
-5
-5
-5
-5
-5
-5
-5
-5
-5
-5
-5
-5
-5
-5
-5
-5
-5
-5
-5
-5
-5
-5
-5
-5
-5
-5
-5
-1
-1
-1
-1
-1
-1
-1
-1
-1
-1
-1
-1
-1
-1
-1
-1
-1
-1
-1
-1
-1
-1
-1
-1
-1
-1
-1
-1
-1
-1
-1
-1
-1
-1
-1
-1
-1
-1
-1
-1
-1
-1
-1
-1
-1
-1
-1
-1
-1
-1
</DataArray>
</CellData>
</Piece>
</RectilinearGrid>
</VTKFile>
