<?xml version="1.0"?>
<VTKFile type="RectilinearGrid">
<RectilinearGrid WholeExtent="0 100 0 0 0 0">
<Piece Extent="0 100 0 0 0 0">
<Coordinates>
<DataArray type="Float32" format="ascii">
0
10
20
30
40
50
60
70
80
90
100
110
120
130
140
150
160
170
180
190
200
210
220
230
240
250
260
270
280
290
300
310
320
330
340
350
360
370
380
390
400
410
420
430
440
450
460
470
480
490
500
510
520
530
540
550
560
570
580
590
600
610
620
630
640
650
660
670
680
690
700
710
720
730
740
750
760
770
780
790
800
810
820
830
840
850
860
870
880
890
900
910
920
930
940
950
960
970
980
990
1000
</DataArray>
<DataArray type="Float32" format="ascii">
0
</DataArray>
<DataArray type="Float32" format="ascii">
0
</DataArray>
</Coordinates>
<CellData>
<DataArray Name="h" type="Float32" format="ascii">
6.94137
6.94119
6.94083
6.94032
6.93967
6.9389
6.93805
6.93714
6.9362
6.93528
6.93439
6.93358
6.93286
6.93225
6.93178
6.93144
6.93124
6.93118
6.93125
6.93143
6.93173
6.93212
6.9326
6.93314
6.93375
6.93442
6.93513
6.93588
6.93666
6.93748
6.93833
6.9392
6.9401
6.94102
6.94196
6.94293
6.9439
6.9449
6.94591
6.94694
6.94798
6.94903
6.9501
6.95117
6.95226
6.95336
6.95447
6.9556
6.95673
6.95678
6.94565
6.93303
6.9214
6.90945
6.8972
6.88465
6.8718
6.85867
6.84528
6.83163
6.81774
6.80363
6.78933
6.77486
6.76026
6.74556
6.7308
6.71601
6.70123
6.68651
6.67191
6.65747
6.64327
6.62937
6.61586
6.60279
6.59025
6.57829
6.567
6.55643
6.54666
6.53776
6.5298
6.52286
6.51703
6.51236
6.50892
6.50676
6.50592
6.50643
6.50846
6.51281
6.52374
6.56179
6.71406
7.2512
8.51536
10.1411
11.2821
11.7517
</DataArray>
<DataArray Name="hu" type="Float32" format="ascii">
0.0371619
0.116765
0.211809
0.331317
0.482579
0.670797
0.898956
1.16791
1.47666
1.82277
2.20273
2.61247
3.04765
3.504
3.97755
4.46474
4.96252
5.46835
5.98017
6.49637
7.0157
7.53726
8.06036
8.58452
9.1094
9.63477
10.1604
10.6863
11.2124
11.7385
12.2646
12.7908
13.317
13.8432
14.3693
14.8954
15.4214
15.9474
16.4733
16.999
17.5247
18.0502
18.5756
19.1008
19.6258
20.1506
20.6751
21.1994
21.7234
22.2328
22.7451
23.2758
23.7972
24.3178
24.8375
25.3563
25.874
26.3906
26.9059
27.4199
27.9323
28.4431
28.9521
29.4591
29.964
30.4664
30.9663
31.4634
31.9575
32.4483
32.9357
33.4193
33.8989
34.374
34.8445
35.3099
35.7701
36.2247
36.6735
37.1162
37.5526
37.9825
38.4056
38.8216
39.2303
39.6315
40.025
40.4106
40.7883
41.158
41.5192
41.8689
42.1909
42.405
42.1303
39.7727
31.7409
18.4137
7.36827
1.71003
</DataArray>
<DataArray Name="B" type="Float32" format="ascii">
-5
-5
-5
-5
-5
-5
-5
-5
-5
-5
-5
-5
-5
-5
-5
-5
-5
-5
-5
-5
-5
-5
-5
-5
-5
-5
-5
-5
-5
-5
-5
-5
-5
-5
-5
-5
-5
-5
-5
-5
-5
-5
-5
-5
-5
-5
-5
-5
-5
-5
-1
-1
-1
-1
-1
-1
-1
-1
-1
-1
-1
-1
-1
-1
-1
-1
-1
-1
-1
-1
-1
-1
-1
-1
-1
-1
-1
-1
-1
-1
-1
-1
-1
-1
-1
-1
-1
-1
-1
-1
-1
-1
-1
-1
-1
-1
-1
-1
-1
-1
</DataArray>
</CellData>
</Piece>
</RectilinearGrid>
</VTKFile>
