<?xml version="1.0"?>
<VTKFile type="RectilinearGrid">
<RectilinearGrid WholeExtent="0 100 0 0 0 0">
<Piece Extent="0 100 0 0 0 0">
<Coordinates>
<DataArray type="Float32" format="ascii">
0
10
20
30
40
50
60
70
80
90
100
110
120
130
140
150
160
170
180
190
200
210
220
230
240
250
260
270
280
290
300
310
320
330
340
350
360
370
380
390
400
410
420
430
440
450
460
470
480
490
500
510
520
530
540
550
560
570
580
590
600
610
620
630
640
650
660
670
680
690
700
710
720
730
740
750
760
770
780
790
800
810
820
830
840
850
860
870
880
890
900
910
920
930
940
950
960
970
980
990
1000
</DataArray>
<DataArray type="Float32" format="ascii">
0
</DataArray>
<DataArray type="Float32" format="ascii">
0
</DataArray>
</Coordinates>
<CellData>
<DataArray Name="h" type="Float32" format="ascii">
6.19019
6.1914
6.19413
6.19899
6.20687
6.21895
6.23664
6.26148
6.29504
6.33875
6.39365
6.46018
6.53803
6.62603
6.72226
6.82428
6.92943
7.03517
7.13931
7.24011
7.33626
7.42683
7.51115
7.58869
7.65909
7.72208
7.77758
7.8257
7.86682
7.90158
7.93085
7.95562
7.97684
7.99526
8.01133
8.0252
8.03678
8.04594
8.05261
8.05693
8.05924
8.05999
8.05966
8.05866
8.05733
8.05586
8.05437
8.05294
8.05159
8.05029
8.0487
8.04698
8.04549
8.04417
8.043
8.04196
8.04102
8.04016
8.03938
8.03865
8.03797
8.03734
8.03677
8.0363
8.03597
8.03588
8.03616
8.03701
8.03871
8.0416
8.04607
8.05251
8.06117
8.0721
8.08493
8.09872
8.11156
8.11968
8.11499
8.07867
7.96568
7.67271
7.0063
5.80763
4.51221
3.84412
3.65553
3.61547
3.60768
3.60621
3.60594
3.6059
3.60589
3.60589
3.60589
3.60589
3.60589
3.60589
3.60589
3.60589
</DataArray>
<DataArray Name="hu" type="Float32" format="ascii">
1.63924
4.91032
8.15911
11.3705
14.5292
17.6196
20.626
23.5334
26.3278
28.997
31.5326
33.9301
36.1902
38.319
40.3266
42.2258
44.0294
45.7481
47.3894
48.9564
50.4487
51.8632
53.1954
54.4403
55.5933
56.6504
57.609
58.4672
59.2241
59.8795
60.4345
60.892
61.2568
61.5369
61.7431
61.8887
61.988
62.0547
62.1006
62.1342
62.1609
62.1835
62.2032
62.2202
62.2346
62.2467
62.2567
62.265
62.2718
62.2766
62.2802
62.2836
62.2857
62.2868
62.2869
62.2863
62.2849
62.2828
62.2802
62.277
62.2733
62.269
62.264
62.2581
62.2512
62.2427
62.2319
62.218
62.1996
62.1749
62.142
62.0987
62.0429
61.9724
61.8843
61.7723
61.6175
61.3676
60.8817
59.7994
57.2493
51.3804
39.5152
22.066
7.5954
1.74057
0.345639
0.067332
0.0132634
0.00272004
0.000629271
0.000198519
9.97729e-05
7.12587e-05
5.95355e-05
4.84993e-05
3.7596e-05
2.70168e-05
1.59751e-05
5.28543e-06
</DataArray>
<DataArray Name="B" type="Float32" format="ascii">
-5
-5
-5
-5
-5
-5
-5
-5
-5
-5
-5
-5
-5
-5
-5
-5
-5
-5
-5
-5
-5
-5
-5
-5
-5
-5
-5
-5
-5
-5
-5
-5
-5
-5
-5
-5
-5
-5
-5
-5
-5
-5
-5
-5
-5
-5
-5
-5
-5
-5
-1
-1
-1
-1
-1
-1
-1
-1
-1
-1
-1
-1
-1
-1
-1
-1
-1
-1
-1
-1
-1
-1
-1
-1
-1
-1
-1
-1
-1
-1
-1
-1
-1
-1
-1
-1
-1
-1
-1
-1
-1
-1
-1
-1
-1
-1
-1
-1
-1
-1
</DataArray>
</CellData>
</Piece>
</RectilinearGrid>
</VTKFile>
