<?xml version="1.0"?>
<VTKFile type="RectilinearGrid">
<RectilinearGrid WholeExtent="0 100 0 0 0 0">
<Piece Extent="0 100 0 0 0 0">
<Coordinates>
<DataArray type="Float32" format="ascii">
0
10
20
30
40
50
60
70
80
90
100
110
120
130
140
150
160
170
180
190
200
210
220
230
240
250
260
270
280
290
300
310
320
330
340
350
360
370
380
390
400
410
420
430
440
450
460
470
480
490
500
510
520
530
540
550
560
570
580
590
600
610
620
630
640
650
660
670
680
690
700
710
720
730
740
750
760
770
780
790
800
810
820
830
840
850
860
870
880
890
900
910
920
930
940
950
960
970
980
990
1000
</DataArray>
<DataArray type="Float32" format="ascii">
0
</DataArray>
<DataArray type="Float32" format="ascii">
0
</DataArray>
</Coordinates>
<CellData>
<DataArray Name="h" type="Float32" format="ascii">
13.1918
13.1454
13.0544
12.9218
12.7518
12.5494
12.3194
12.0666
11.7955
11.5099
11.2134
10.9092
10.6005
10.2904
9.98251
9.68091
9.39028
9.11607
8.86438
8.64156
8.45341
8.30393
8.19408
8.12091
8.07791
8.05658
8.04856
8.04736
8.04887
8.05105
8.05311
8.05485
8.0563
8.05749
8.05848
8.05925
8.0597
8.05951
8.05808
8.05453
8.04807
8.03871
8.02803
8.01939
8.01665
8.02177
8.03293
8.04521
8.05382
8.05704
8.05667
8.0516
8.04633
8.04099
8.03466
8.02526
8.00813
7.97215
7.89038
7.69913
7.26145
6.37038
5.05018
4.01588
3.621
3.52495
3.50505
3.50103
3.50022
3.50005
3.50001
3.50001
3.50002
3.50004
3.5001
3.50022
3.50047
3.50097
3.50191
3.50355
3.50625
3.51043
3.5165
3.52468
3.53492
3.54675
3.55932
3.57155
3.58238
3.59108
3.59739
3.60149
3.60386
3.60506
3.60559
3.60578
3.60585
3.60586
3.60587
3.60587
</DataArray>
<DataArray Name="hu" type="Float32" format="ascii">
1.56139
4.68781
7.82516
10.9807
14.1606
17.3689
20.606
23.8672
27.1427
30.4175
33.6725
36.8849
40.0297
43.0797
46.006
48.7777
51.3621
53.7247
55.8305
57.6463
59.1461
60.3167
61.1662
61.7269
62.0541
62.2145
62.2723
62.2774
62.2612
62.2394
62.2183
62.1993
62.1822
62.1667
62.1523
62.139
62.1275
62.1201
62.1211
62.1369
62.1737
62.2316
62.2993
62.3521
62.3605
62.3087
62.2087
62.0968
62.0095
61.9615
61.9401
61.9402
61.9345
61.9126
61.8572
61.7277
61.428
60.7286
59.086
55.2747
47.0135
32.2877
15.1058
4.74183
1.55689
0.871173
0.734387
0.707041
0.701471
0.700309
0.700053
0.699974
0.699899
0.699742
0.69938
0.698585
0.696932
0.693676
0.687615
0.676976
0.659397
0.632136
0.592581
0.539078
0.471897
0.39396
0.310816
0.229647
0.157471
0.0992983
0.0570324
0.0295284
0.0136313
0.0055533
0.00198889
0.000642156
0.000209167
8.47567e-05
4.24486e-05
1.4298e-05
</DataArray>
<DataArray Name="B" type="Float32" format="ascii">
-5
-5
-5
-5
-5
-5
-5
-5
-5
-5
-5
-5
-5
-5
-5
-5
-5
-5
-5
-5
-5
-5
-5
-5
-5
-5
-5
-5
-5
-5
-5
-5
-5
-5
-5
-5
-5
-5
-5
-5
-5
-5
-5
-5
-5
-5
-5
-5
-5
-5
-1
-1
-1
-1
-1
-1
-1
-1
-1
-1
-1
-1
-1
-1
-1
-1
-1
-1
-1
-1
-1
-1
-1
-1
-1
-1
-1
-1
-1
-1
-1
-1
-1
-1
-1
-1
-1
-1
-1
-1
-1
-1
-1
-1
-1
-1
-1
-1
-1
-1
</DataArray>
</CellData>
</Piece>
</RectilinearGrid>
</VTKFile>
