<?xml version="1.0"?>
<VTKFile type="RectilinearGrid">
<RectilinearGrid WholeExtent="0 100 0 0 0 0">
<Piece Extent="0 100 0 0 0 0">
<Coordinates>
<DataArray type="Float32" format="ascii">
0
10
20
30
40
50
60
70
80
90
100
110
120
130
140
150
160
170
180
190
200
210
220
230
240
250
260
270
280
290
300
310
320
330
340
350
360
370
380
390
400
410
420
430
440
450
460
470
480
490
500
510
520
530
540
550
560
570
580
590
600
610
620
630
640
650
660
670
680
690
700
710
720
730
740
750
760
770
780
790
800
810
820
830
840
850
860
870
880
890
900
910
920
930
940
950
960
970
980
990
1000
</DataArray>
<DataArray type="Float32" format="ascii">
0
</DataArray>
<DataArray type="Float32" format="ascii">
0
</DataArray>
</Coordinates>
<CellData>
<DataArray Name="h" type="Float32" format="ascii">
11.7127
11.6798
11.6143
11.5174
11.3903
11.2353
11.0549
10.8522
10.6308
10.3948
10.1484
9.89622
9.64301
9.39374
9.15358
8.92787
8.72199
8.54097
8.38891
8.26824
8.17895
8.11834
8.08139
8.06182
8.05346
8.05133
8.05208
8.0538
8.05563
8.05727
8.05866
8.05978
8.06061
8.061
8.06069
8.05927
8.05625
8.05131
8.04463
8.03718
8.03075
8.02746
8.02878
8.03463
8.04315
8.05155
8.05751
8.06017
8.06003
8.05816
8.05499
8.05079
8.047
8.04362
8.04058
8.0378
8.03516
8.03242
8.02913
8.02424
8.01529
7.99629
7.95247
7.84763
7.59713
7.03161
5.95825
4.6292
3.82275
3.57001
3.51396
3.50283
3.50076
3.50057
3.50093
3.50172
3.50309
3.50532
3.50872
3.51365
3.52035
3.5289
3.53911
3.55045
3.56215
3.57332
3.58316
3.59111
3.597
3.60099
3.60342
3.60477
3.60543
3.60572
3.60582
3.60586
3.60587
3.60587
3.60587
3.60588
</DataArray>
<DataArray Name="hu" type="Float32" format="ascii">
2.40493
7.18914
11.8979
16.4853
20.9121
25.1471
29.1685
32.9632
36.5264
39.8594
42.9667
45.8538
48.5239
50.9766
53.2064
55.2035
56.9543
58.4454
59.6667
60.6179
61.3123
61.7791
62.0616
62.2095
62.2709
62.2839
62.2744
62.2572
62.2388
62.2218
62.2065
62.1931
62.1819
62.1736
62.1704
62.1752
62.1916
62.2222
62.2657
62.315
62.3569
62.3754
62.3589
62.3074
62.2342
62.1603
62.1034
62.0706
62.0582
62.0564
62.0583
62.0637
62.0663
62.0658
62.0624
62.0557
62.0442
62.0247
61.9884
61.9143
61.7516
61.3756
60.4809
58.3399
53.3699
42.9982
26.4221
10.5888
3.12098
1.18772
0.794803
0.717908
0.702214
0.697739
0.694245
0.688896
0.67994
0.665471
0.643297
0.611197
0.56743
0.511416
0.444363
0.369563
0.292096
0.21788
0.152335
0.0991583
0.059676
0.032968
0.0165934
0.00755362
0.00309871
0.00115809
0.000416178
0.000165567
8.60577e-05
5.23374e-05
2.9389e-05
1.00721e-05
</DataArray>
<DataArray Name="B" type="Float32" format="ascii">
-5
-5
-5
-5
-5
-5
-5
-5
-5
-5
-5
-5
-5
-5
-5
-5
-5
-5
-5
-5
-5
-5
-5
-5
-5
-5
-5
-5
-5
-5
-5
-5
-5
-5
-5
-5
-5
-5
-5
-5
-5
-5
-5
-5
-5
-5
-5
-5
-5
-5
-1
-1
-1
-1
-1
-1
-1
-1
-1
-1
-1
-1
-1
-1
-1
-1
-1
-1
-1
-1
-1
-1
-1
-1
-1
-1
-1
-1
-1
-1
-1
-1
-1
-1
-1
-1
-1
-1
-1
-1
-1
-1
-1
-1
-1
-1
-1
-1
-1
-1
</DataArray>
</CellData>
</Piece>
</RectilinearGrid>
</VTKFile>
