<?xml version="1.0"?>
<VTKFile type="RectilinearGrid">
<RectilinearGrid WholeExtent="0 100 0 0 0 0">
<Piece Extent="0 100 0 0 0 0">
<Coordinates>
<DataArray type="Float32" format="ascii">
0
10
20
30
40
50
60
70
80
90
100
110
120
130
140
150
160
170
180
190
200
210
220
230
240
250
260
270
280
290
300
310
320
330
340
350
360
370
380
390
400
410
420
430
440
450
460
470
480
490
500
510
520
530
540
550
560
570
580
590
600
610
620
630
640
650
660
670
680
690
700
710
720
730
740
750
760
770
780
790
800
810
820
830
840
850
860
870
880
890
900
910
920
930
940
950
960
970
980
990
1000
</DataArray>
<DataArray type="Float32" format="ascii">
0
</DataArray>
<DataArray type="Float32" format="ascii">
0
</DataArray>
</Coordinates>
<CellData>
<DataArray Name="h" type="Float32" format="ascii">
7.05596
7.06001
7.068
7.07969
7.09472
7.11261
7.13276
7.15447
7.17701
7.19962
7.22158
7.24228
7.26122
7.27809
7.2927
7.30502
7.31517
7.32333
7.32976
7.33473
7.33852
7.34139
7.34358
7.34526
7.34661
7.34772
7.34869
7.34957
7.35042
7.35124
7.35205
7.35288
7.35371
7.35455
7.3554
7.35626
7.35713
7.358
7.35888
7.35976
7.36065
7.36153
7.36241
7.3633
7.36418
7.36505
7.36592
7.36679
7.36764
7.36738
7.35573
7.34257
7.33033
7.31774
7.30479
7.29148
7.27781
7.2638
7.24943
7.23471
7.21967
7.20429
7.18861
7.17263
7.15636
7.13984
7.12309
7.10614
7.08903
7.0718
7.0545
7.03715
7.01982
7.00253
6.98535
6.96836
6.95162
6.93524
6.9193
6.90388
6.88906
6.8749
6.86148
6.84885
6.83707
6.82614
6.816
6.80637
6.79643
6.78393
6.76294
6.71796
6.60922
6.34059
5.72679
4.6326
3.54711
3.058
2.93333
2.90856
</DataArray>
<DataArray Name="hu" type="Float32" format="ascii">
0.163072
0.487456
0.806866
1.11894
1.42262
1.71844
2.00863
2.29694
2.58834
2.8884
3.20275
3.53641
3.89335
4.27611
4.68573
5.12183
5.58282
6.06623
6.56905
7.08805
7.62006
8.16219
8.71189
9.26707
9.82607
10.3876
10.9508
11.515
12.0796
12.6445
13.2095
13.7744
14.3392
14.9038
15.4681
16.0323
16.5962
17.1598
17.7232
18.2863
18.8491
19.4115
19.9736
20.5354
21.0968
21.6579
22.2185
22.7787
23.3385
23.8829
24.4302
24.9964
25.553
26.1087
26.6635
27.2174
27.7702
28.3219
28.8724
29.4216
29.9695
30.5159
31.0606
31.6036
32.1447
32.6837
33.2205
33.7548
34.2864
34.815
35.3403
35.8622
36.3804
36.8947
37.4048
37.9102
38.4107
38.9058
39.3951
39.8781
40.3547
40.8244
41.2869
41.7417
42.1881
42.6247
43.0485
43.4528
43.8207
44.1097
44.211
43.8433
42.3028
38.0212
28.6695
14.9386
4.49144
0.830578
0.0899565
-0.00345683
</DataArray>
<DataArray Name="B" type="Float32" format="ascii">
-5
-5
-5
-5
-5
-5
-5
-5
-5
-5
-5
-5
-5
-5
-5
-5
-5
-5
-5
-5
-5
-5
-5
-5
-5
-5
-5
-5
-5
-5
-5
-5
-5
-5
-5
-5
-5
-5
-5
-5
-5
-5
-5
-5
-5
-5
-5
-5
-5
-5
-1
-1
-1
-1
-1
-1
-1
-1
-1
-1
-1
-1
-1
-1
-1
-1
-1
-1
-1
-1
-1
-1
-1
-1
-1
-1
-1
-1
-1
-1
-1
-1
-1
-1
-1
-1
-1
-1
-1
-1
-1
-1
-1
-1
-1
-1
-1
-1
-1
-1
</DataArray>
</CellData>
</Piece>
</RectilinearGrid>
</VTKFile>
