<?xml version="1.0"?>
<VTKFile type="RectilinearGrid">
<RectilinearGrid WholeExtent="0 100 0 0 0 0">
<Piece Extent="0 100 0 0 0 0">
<Coordinates>
<DataArray type="Float32" format="ascii">
0
10
20
30
40
50
60
70
80
90
100
110
120
130
140
150
160
170
180
190
200
210
220
230
240
250
260
270
280
290
300
310
320
330
340
350
360
370
380
390
400
410
420
430
440
450
460
470
480
490
500
510
520
530
540
550
560
570
580
590
600
610
620
630
640
650
660
670
680
690
700
710
720
730
740
750
760
770
780
790
800
810
820
830
840
850
860
870
880
890
900
910
920
930
940
950
960
970
980
990
1000
</DataArray>
<DataArray type="Float32" format="ascii">
0
</DataArray>
<DataArray type="Float32" format="ascii">
0
</DataArray>
</Coordinates>
<CellData>
<DataArray Name="h" type="Float32" format="ascii">
4.91786
4.92605
4.94271
4.96831
5.00352
5.04903
5.10545
5.17314
5.2521
5.3418
5.44121
5.54883
5.66287
5.78143
5.90273
6.0252
6.14763
6.26908
6.3889
6.50662
6.62188
6.7344
6.8439
6.95013
7.05281
7.15167
7.2464
7.33671
7.42229
7.50284
7.57808
7.64777
7.71167
7.76966
7.82162
7.86759
7.90764
7.94199
7.97094
7.99489
8.01431
8.02973
8.0417
8.05078
8.05752
8.06238
8.06581
8.06817
8.06977
8.07085
8.07162
8.07224
8.07286
8.07362
8.07467
8.07615
8.07821
8.08099
8.0846
8.08912
8.09457
8.10089
8.10791
8.11542
8.1231
8.13064
8.13772
8.14407
8.14951
8.15393
8.15733
8.15979
8.16144
8.16242
8.16288
8.16295
8.16272
8.16223
8.16145
8.16018
8.15793
8.15348
8.14403
8.12311
8.07608
7.97094
7.74301
7.28386
6.48946
5.44387
4.51427
3.96262
3.71862
3.62639
3.59381
3.58259
3.57877
3.57748
3.57704
3.57691
</DataArray>
<DataArray Name="hu" type="Float32" format="ascii">
1.18243
3.54015
5.87666
8.17839
10.4328
12.629
14.7584
16.8156
18.799
20.7112
22.5589
24.3519
26.1018
27.8204
29.5181
31.2029
32.8799
34.551
36.216
37.8725
39.5169
41.1446
42.7506
44.329
45.8738
47.3786
48.8366
50.241
51.5849
52.8611
54.0631
55.1845
56.22
57.165
58.0164
58.7727
59.4341
60.0029
60.4833
60.8812
61.2039
61.4601
61.6587
61.8091
61.9201
61.9997
62.0552
62.0924
62.1162
62.1303
62.1373
62.1391
62.1368
62.1306
62.1206
62.1062
62.0869
62.0616
62.0297
61.9906
61.9442
61.8909
61.8319
61.7688
61.7039
61.6396
61.5783
61.5221
61.4724
61.43
61.3947
61.3662
61.3433
61.3248
61.3096
61.2962
61.2836
61.2703
61.2541
61.2306
61.1906
61.1125
60.9469
60.5806
59.7604
57.9427
54.0749
46.5868
34.575
20.4961
9.51636
3.7054
1.32417
0.457758
0.156304
0.0530913
0.0179761
0.00605835
0.0019775
0.000459487
</DataArray>
<DataArray Name="B" type="Float32" format="ascii">
-5
-5
-5
-5
-5
-5
-5
-5
-5
-5
-5
-5
-5
-5
-5
-5
-5
-5
-5
-5
-5
-5
-5
-5
-5
-5
-5
-5
-5
-5
-5
-5
-5
-5
-5
-5
-5
-5
-5
-5
-5
-5
-5
-5
-5
-5
-5
-5
-5
-5
-5
-5
-5
-5
-5
-5
-5
-5
-5
-5
-5
-5
-5
-5
-5
-5
-5
-5
-5
-5
-5
-5
-5
-5
-5
-5
-5
-5
-5
-5
-5
-5
-5
-5
-5
-5
-5
-5
-5
-5
-5
-5
-5
-5
-5
-5
-5
-5
-5
-5
</DataArray>
</CellData>
</Piece>
</RectilinearGrid>
</VTKFile>
