<?xml version="1.0"?>
<VTKFile type="RectilinearGrid">
<RectilinearGrid WholeExtent="0 100 0 0 0 0">
<Piece Extent="0 100 0 0 0 0">
<Coordinates>
<DataArray type="Float32" format="ascii">
0
10
20
30
40
50
60
70
80
90
100
110
120
130
140
150
160
170
180
190
200
210
220
230
240
250
260
270
280
290
300
310
320
330
340
350
360
370
380
390
400
410
420
430
440
450
460
470
480
490
500
510
520
530
540
550
560
570
580
590
600
610
620
630
640
650
660
670
680
690
700
710
720
730
740
750
760
770
780
790
800
810
820
830
840
850
860
870
880
890
900
910
920
930
940
950
960
970
980
990
1000
</DataArray>
<DataArray type="Float32" format="ascii">
0
</DataArray>
<DataArray type="Float32" format="ascii">
0
</DataArray>
</Coordinates>
<CellData>
<DataArray Name="h" type="Float32" format="ascii">
4.68946
4.68958
4.68981
4.69017
4.69065
4.69126
4.692
4.69288
4.69391
4.69509
4.69644
4.69796
4.69967
4.70158
4.7037
4.70605
4.70865
4.71152
4.71467
4.71812
4.7219
4.72602
4.73052
4.73542
4.74073
4.7465
4.75274
4.75949
4.76676
4.77459
4.78301
4.79203
4.80169
4.812
4.82298
4.83466
4.84704
4.86014
4.87395
4.88849
4.90375
4.91972
4.93639
4.95374
4.97175
4.9904
5.00965
5.0295
5.04995
5.07107
5.09312
5.11686
5.1443
5.18084
5.24037
5.35725
5.6068
6.11086
6.94505
7.95692
8.82742
9.38853
9.68923
9.83723
9.90917
9.94563
9.96582
9.9785
9.98763
9.995
10.0014
10.0073
10.0128
10.018
10.0229
10.0276
10.0321
10.0364
10.0405
10.0443
10.048
10.0514
10.0547
10.0577
10.0606
10.0633
10.0657
10.0681
10.0702
10.0721
10.0739
10.0754
10.0769
10.0781
10.0791
10.08
10.0807
10.0812
10.0816
10.0817
</DataArray>
<DataArray Name="hu" type="Float32" format="ascii">
0.237131
0.711341
1.18537
1.65911
2.13241
2.60518
3.07727
3.54857
4.01895
4.48827
4.95638
5.42316
5.88846
6.35213
6.81401
7.27395
7.73178
8.18733
8.64043
9.0909
9.53854
9.98318
10.4246
10.8627
11.2971
11.7278
12.1544
12.5769
12.995
13.4085
13.8172
14.221
14.6197
15.0132
15.4013
15.784
16.1612
16.5329
16.8991
17.2597
17.6149
17.9648
18.3095
18.6492
18.9841
19.3144
19.6404
19.9622
20.2798
20.5927
20.8987
21.192
21.4564
21.649
21.6574
21.1961
19.5937
15.5777
7.86477
-2.68373
-12.5499
-19.098
-22.4057
-23.6814
-23.9142
-23.655
-23.1702
-22.5819
-21.9454
-21.2855
-20.6139
-19.9358
-19.2537
-18.5687
-17.8816
-17.1926
-16.5019
-15.8097
-15.1161
-14.4212
-13.725
-13.0277
-12.3293
-11.6299
-10.9296
-10.2284
-9.52639
-8.82364
-8.12021
-7.41617
-6.71156
-6.00644
-5.30087
-4.5949
-3.88858
-3.18196
-2.47511
-1.76807
-1.06089
-0.353644
</DataArray>
<DataArray Name="B" type="Float32" format="ascii">
-5
-5
-5
-5
-5
-5
-5
-5
-5
-5
-5
-5
-5
-5
-5
-5
-5
-5
-5
-5
-5
-5
-5
-5
-5
-5
-5
-5
-5
-5
-5
-5
-5
-5
-5
-5
-5
-5
-5
-5
-5
-5
-5
-5
-5
-5
-5
-5
-5
-5
-5
-5
-5
-5
-5
-5
-5
-5
-5
-5
-5
-5
-5
-5
-5
-5
-5
-5
-5
-5
-5
-5
-5
-5
-5
-5
-5
-5
-5
-5
-5
-5
-5
-5
-5
-5
-5
-5
-5
-5
-5
-5
-5
-5
-5
-5
-5
-5
-5
-5
</DataArray>
</CellData>
</Piece>
</RectilinearGrid>
</VTKFile>
