<?xml version="1.0"?>
<VTKFile type="RectilinearGrid">
<RectilinearGrid WholeExtent="0 100 0 0 0 0">
<Piece Extent="0 100 0 0 0 0">
<Coordinates>
<DataArray type="Float32" format="ascii">
0
10
20
30
40
50
60
70
80
90
100
110
120
130
140
150
160
170
180
190
200
210
220
230
240
250
260
270
280
290
300
310
320
330
340
350
360
370
380
390
400
410
420
430
440
450
460
470
480
490
500
510
520
530
540
550
560
570
580
590
600
610
620
630
640
650
660
670
680
690
700
710
720
730
740
750
760
770
780
790
800
810
820
830
840
850
860
870
880
890
900
910
920
930
940
950
960
970
980
990
1000
</DataArray>
<DataArray type="Float32" format="ascii">
0
</DataArray>
<DataArray type="Float32" format="ascii">
0
</DataArray>
</Coordinates>
<CellData>
<DataArray Name="h" type="Float32" format="ascii">
3.28103
3.28125
3.28171
3.2824
3.28334
3.28454
3.28601
3.28776
3.28981
3.29215
3.29477
3.29765
3.30078
3.30412
3.30761
3.31121
3.31486
3.31849
3.32205
3.32548
3.32872
3.33173
3.33451
3.33704
3.33935
3.34148
3.34351
3.34554
3.3477
3.35017
3.35315
3.35687
3.36157
3.36755
3.37516
3.38488
3.3975
3.41477
3.44091
3.48684
3.5806
3.78857
4.23459
5.03553
6.09553
7.07611
7.74256
8.12179
8.33191
8.46009
8.55194
8.62856
8.69928
8.76816
8.83691
8.90619
8.97623
9.04699
9.11839
9.19027
9.26243
9.33471
9.40688
9.47874
9.55009
9.62069
9.69034
9.75882
9.82594
9.89148
9.95528
10.0172
10.077
10.1346
10.19
10.243
10.2935
10.3416
10.3871
10.4302
10.4708
10.5089
10.5446
10.5779
10.6089
10.6376
10.664
10.6883
10.7105
10.7306
10.7487
10.7649
10.7791
10.7915
10.802
10.8108
10.8177
10.8229
10.8264
10.8281
</DataArray>
<DataArray Name="hu" type="Float32" format="ascii">
-0.00521223
-0.015836
-0.0270642
-0.0392917
-0.0528905
-0.0682089
-0.0855484
-0.105164
-0.127246
-0.151908
-0.179179
-0.208988
-0.241164
-0.275432
-0.311433
-0.348724
-0.386793
-0.425093
-0.463058
-0.500128
-0.535763
-0.569453
-0.600724
-0.629113
-0.654154
-0.675347
-0.692113
-0.703755
-0.709416
-0.708034
-0.698344
-0.678899
-0.648122
-0.604468
-0.546787
-0.475154
-0.392969
-0.31243
-0.269096
-0.360898
-0.849367
-2.39257
-6.38863
-14.6769
-27.1297
-39.838
-48.8801
-53.7722
-55.9348
-56.6769
-56.7428
-56.4909
-56.0844
-55.5964
-55.0604
-54.4916
-53.8971
-53.2801
-52.642
-51.9828
-51.3021
-50.5991
-49.8726
-49.1211
-48.3431
-47.5367
-46.7001
-45.8315
-44.9292
-43.9914
-43.0167
-42.0038
-40.9518
-39.86
-38.7281
-37.556
-36.3441
-35.0931
-33.8038
-32.4774
-31.1152
-29.719
-28.2902
-26.8309
-25.3428
-23.8278
-22.288
-20.7252
-19.1415
-17.5387
-15.9186
-14.2832
-12.6341
-10.9732
-9.30201
-7.62229
-5.93561
-4.24355
-2.54766
-0.849476
</DataArray>
<DataArray Name="B" type="Float32" format="ascii">
-5
-5
-5
-5
-5
-5
-5
-5
-5
-5
-5
-5
-5
-5
-5
-5
-5
-5
-5
-5
-5
-5
-5
-5
-5
-5
-5
-5
-5
-5
-5
-5
-5
-5
-5
-5
-5
-5
-5
-5
-5
-5
-5
-5
-5
-5
-5
-5
-5
-5
-5
-5
-5
-5
-5
-5
-5
-5
-5
-5
-5
-5
-5
-5
-5
-5
-5
-5
-5
-5
-5
-5
-5
-5
-5
-5
-5
-5
-5
-5
-5
-5
-5
-5
-5
-5
-5
-5
-5
-5
-5
-5
-5
-5
-5
-5
-5
-5
-5
-5
</DataArray>
</CellData>
</Piece>
</RectilinearGrid>
</VTKFile>
