<?xml version="1.0"?>
<VTKFile type="RectilinearGrid">
<RectilinearGrid WholeExtent="0 100 0 0 0 0">
<Piece Extent="0 100 0 0 0 0">
<Coordinates>
<DataArray type="Float32" format="ascii">
0
10
20
30
40
50
60
70
80
90
100
110
120
130
140
150
160
170
180
190
200
210
220
230
240
250
260
270
280
290
300
310
320
330
340
350
360
370
380
390
400
410
420
430
440
450
460
470
480
490
500
510
520
530
540
550
560
570
580
590
600
610
620
630
640
650
660
670
680
690
700
710
720
730
740
750
760
770
780
790
800
810
820
830
840
850
860
870
880
890
900
910
920
930
940
950
960
970
980
990
1000
</DataArray>
<DataArray type="Float32" format="ascii">
0
</DataArray>
<DataArray type="Float32" format="ascii">
0
</DataArray>
</Coordinates>
<CellData>
<DataArray Name="h" type="Float32" format="ascii">
3.27371
3.27368
3.27361
3.27352
3.2734
3.27325
3.27308
3.27288
3.27267
3.27247
3.27229
3.27218
3.27219
3.27239
3.2729
3.27385
3.27542
3.27784
3.28138
3.28635
3.29307
3.3019
3.3132
3.32729
3.34448
3.36499
3.38899
3.41658
3.44776
3.48247
3.52058
3.56191
3.60623
3.6533
3.70284
3.75461
3.80835
3.86383
3.92084
3.9792
4.03874
4.09933
4.16084
4.22318
4.28625
4.34999
4.41431
4.47917
4.5445
4.61025
4.67638
4.74287
4.80973
4.87707
4.94525
5.01524
5.08959
5.1749
5.28786
5.46886
5.80396
6.42601
7.40599
8.56849
9.57943
10.2686
10.6843
10.9355
11.1022
11.2281
11.3348
11.4324
11.5256
11.6166
11.7062
11.7948
11.8827
11.9698
12.0561
12.1414
12.2257
12.3087
12.3904
12.4705
12.5486
12.6247
12.6982
12.7689
12.8364
12.9003
12.9602
13.0155
13.066
13.1111
13.1506
13.1841
13.2112
13.2318
13.2456
13.2526
</DataArray>
<DataArray Name="hu" type="Float32" format="ascii">
-0.00200532
-0.00603212
-0.0101181
-0.014299
-0.0186133
-0.0231114
-0.0278329
-0.0328177
-0.0380864
-0.0436396
-0.0494433
-0.0553814
-0.0612329
-0.0666346
-0.0710205
-0.0735692
-0.0731555
-0.068306
-0.0571938
-0.0376417
-0.00716318
0.0369583
0.0975784
0.177564
0.279662
0.4064
0.559985
0.74225
0.954614
1.19808
1.47326
1.78038
2.11936
2.48981
2.89106
3.32227
3.78237
4.27016
4.78432
5.32345
5.88609
6.4708
7.07614
7.70072
8.34323
9.00245
9.67724
10.3666
11.0695
11.7852
12.5129
13.2517
14.0004
14.7574
15.5188
16.2759
17.007
17.6567
18.0848
17.942
16.4243
12.0565
3.45186
-8.2923
-19.2674
-26.607
-30.3416
-31.7462
-31.9112
-31.4699
-30.7413
-29.8771
-28.9482
-27.9875
-27.0103
-26.024
-25.0319
-24.0358
-23.0368
-22.0352
-21.0314
-20.0253
-19.0168
-18.0051
-16.9897
-15.9695
-14.9432
-13.9095
-12.8667
-11.8135
-10.7484
-9.67026
-8.57817
-7.47181
-6.35133
-5.21751
-4.07176
-2.91601
-1.75273
-0.58477
</DataArray>
<DataArray Name="B" type="Float32" format="ascii">
-5
-5
-5
-5
-5
-5
-5
-5
-5
-5
-5
-5
-5
-5
-5
-5
-5
-5
-5
-5
-5
-5
-5
-5
-5
-5
-5
-5
-5
-5
-5
-5
-5
-5
-5
-5
-5
-5
-5
-5
-5
-5
-5
-5
-5
-5
-5
-5
-5
-5
-5
-5
-5
-5
-5
-5
-5
-5
-5
-5
-5
-5
-5
-5
-5
-5
-5
-5
-5
-5
-5
-5
-5
-5
-5
-5
-5
-5
-5
-5
-5
-5
-5
-5
-5
-5
-5
-5
-5
-5
-5
-5
-5
-5
-5
-5
-5
-5
-5
-5
</DataArray>
</CellData>
</Piece>
</RectilinearGrid>
</VTKFile>
