<?xml version="1.0"?>
<VTKFile type="RectilinearGrid">
<RectilinearGrid WholeExtent="0 100 0 0 0 0">
<Piece Extent="0 100 0 0 0 0">
<Coordinates>
<DataArray type="Float32" format="ascii">
0
10
20
30
40
50
60
70
80
90
100
110
120
130
140
150
160
170
180
190
200
210
220
230
240
250
260
270
280
290
300
310
320
330
340
350
360
370
380
390
400
410
420
430
440
450
460
470
480
490
500
510
520
530
540
550
560
570
580
590
600
610
620
630
640
650
660
670
680
690
700
710
720
730
740
750
760
770
780
790
800
810
820
830
840
850
860
870
880
890
900
910
920
930
940
950
960
970
980
990
1000
</DataArray>
<DataArray type="Float32" format="ascii">
0
</DataArray>
<DataArray type="Float32" format="ascii">
0
</DataArray>
</Coordinates>
<CellData>
<DataArray Name="h" type="Float32" format="ascii">
10.4298
10.4293
10.4285
10.4272
10.4254
10.4232
10.4206
10.4175
10.4139
10.4099
10.4054
10.4004
10.395
10.3891
10.3826
10.3757
10.3683
10.3603
10.3518
10.3427
10.3331
10.3228
10.312
10.3006
10.2885
10.2758
10.2624
10.2483
10.2335
10.218
10.2017
10.1846
10.1667
10.148
10.1284
10.1078
10.0862
10.0633
10.0385
10.011
9.97853
9.93637
9.87416
9.76947
9.57583
9.20711
8.54512
7.54561
6.42726
5.56091
5.06887
4.8305
4.71343
4.64615
4.59824
4.55783
4.52043
4.48432
4.44888
4.41385
4.37912
4.34468
4.31049
4.27654
4.24283
4.20936
4.17611
4.14309
4.11029
4.07772
4.04539
4.0133
3.98145
3.94988
3.91859
3.88761
3.85697
3.82669
3.79682
3.7674
3.73848
3.71012
3.6824
3.65537
3.62914
3.60378
3.5794
3.5561
3.53399
3.51318
3.4938
3.47595
3.45975
3.44531
3.43273
3.42209
3.41348
3.40696
3.40259
3.40039
</DataArray>
<DataArray Name="hu" type="Float32" format="ascii">
0.507928
1.52368
2.53911
3.55399
4.56812
5.58127
6.59322
7.60377
8.61268
9.61974
10.6247
11.6273
12.6273
13.6245
14.6185
15.6091
16.5959
17.5787
18.5571
19.5309
20.4996
21.463
22.4206
23.372
24.3168
25.2546
26.1849
27.1072
28.0212
28.9262
29.8218
30.7075
31.5825
32.4462
33.2977
34.1359
34.9587
35.7625
36.5397
37.2749
37.9349
38.4472
38.6541
38.2173
36.4493
32.1467
23.9182
11.9636
-0.0993474
-8.2231
-12.0867
-13.4865
-13.81
-13.7115
-13.4533
-13.1354
-12.7955
-12.4477
-12.0976
-11.7473
-11.3977
-11.0493
-10.7023
-10.3571
-10.0137
-9.67252
-9.33365
-8.99731
-8.66372
-8.33309
-8.0056
-7.68147
-7.36086
-7.04397
-6.73095
-6.42197
-6.11715
-5.81662
-5.52048
-5.22878
-4.94157
-4.65883
-4.38053
-4.10658
-3.83686
-3.57119
-3.30935
-3.05109
-2.79614
-2.54416
-2.29482
-2.04782
-1.80281
-1.55946
-1.31748
-1.07659
-0.836544
-0.597113
-0.358105
-0.119341
</DataArray>
<DataArray Name="B" type="Float32" format="ascii">
-5
-5
-5
-5
-5
-5
-5
-5
-5
-5
-5
-5
-5
-5
-5
-5
-5
-5
-5
-5
-5
-5
-5
-5
-5
-5
-5
-5
-5
-5
-5
-5
-5
-5
-5
-5
-5
-5
-5
-5
-5
-5
-5
-5
-5
-5
-5
-5
-5
-5
-5
-5
-5
-5
-5
-5
-5
-5
-5
-5
-5
-5
-5
-5
-5
-5
-5
-5
-5
-5
-5
-5
-5
-5
-5
-5
-5
-5
-5
-5
-5
-5
-5
-5
-5
-5
-5
-5
-5
-5
-5
-5
-5
-5
-5
-5
-5
-5
-5
-5
</DataArray>
</CellData>
</Piece>
</RectilinearGrid>
</VTKFile>
