<?xml version="1.0"?>
<VTKFile type="RectilinearGrid">
<RectilinearGrid WholeExtent="0 100 0 0 0 0">
<Piece Extent="0 100 0 0 0 0">
<Coordinates>
<DataArray type="Float32" format="ascii">
0
10
20
30
40
50
60
70
80
90
100
110
120
130
140
150
160
170
180
190
200
210
220
230
240
250
260
270
280
290
300
310
320
330
340
350
360
370
380
390
400
410
420
430
440
450
460
470
480
490
500
510
520
530
540
550
560
570
580
590
600
610
620
630
640
650
660
670
680
690
700
710
720
730
740
750
760
770
780
790
800
810
820
830
840
850
860
870
880
890
900
910
920
930
940
950
960
970
980
990
1000
</DataArray>
<DataArray type="Float32" format="ascii">
0
</DataArray>
<DataArray type="Float32" format="ascii">
0
</DataArray>
</Coordinates>
<CellData>
<DataArray Name="h" type="Float32" format="ascii">
3.27464
3.27462
3.27458
3.27452
3.27444
3.27436
3.27426
3.27416
3.27408
3.27401
3.27399
3.27404
3.27419
3.2745
3.27503
3.27588
3.27715
3.27899
3.28156
3.28509
3.2898
3.29596
3.30385
3.31378
3.326
3.3408
3.35839
3.37894
3.40257
3.42934
3.45924
3.4922
3.52813
3.56688
3.60828
3.65215
3.6983
3.74655
3.79672
3.84864
3.90215
3.95711
4.01337
4.07083
4.12935
4.18885
4.24922
4.31039
4.37229
4.43491
4.49831
4.56281
4.62932
4.70025
4.78192
4.89046
5.06523
5.39108
6.00081
6.96748
8.11671
9.11312
9.78786
10.1923
10.4362
10.5983
10.7215
10.8264
10.9228
11.0152
11.1056
11.1949
11.2836
11.3717
11.4592
11.5462
11.6326
11.7182
11.8029
11.8866
11.969
12.05
12.1292
12.2064
12.2813
12.3536
12.4229
12.4889
12.5512
12.6096
12.6637
12.7131
12.7577
12.7973
12.8315
12.8603
12.8835
12.9009
12.9126
12.9185
</DataArray>
<DataArray Name="hu" type="Float32" format="ascii">
-0.00175865
-0.00529486
-0.00889989
-0.012625
-0.0165249
-0.0206675
-0.0251296
-0.0300042
-0.0353905
-0.0413992
-0.0481463
-0.0557382
-0.0642467
-0.0736781
-0.0839436
-0.0947983
-0.105797
-0.116209
-0.12498
-0.130679
-0.131462
-0.12507
-0.108871
-0.0799407
-0.0351443
0.028708
0.114736
0.22585
0.364605
0.533127
0.733047
0.965448
1.23089
1.52943
1.86068
2.22386
2.61788
3.04141
3.49297
3.97098
4.4738
4.99984
5.54752
6.11536
6.70197
7.30608
7.92649
8.56207
9.21171
9.87404
10.5471
11.2269
11.9049
12.5596
13.1367
13.4979
13.2964
11.7266
7.29556
-1.42005
-13.3191
-24.4189
-31.8176
-35.5803
-37.0159
-37.2235
-36.8335
-36.1601
-35.3516
-34.4771
-33.5683
-32.6402
-31.6995
-30.7494
-29.7914
-28.8259
-27.853
-26.8722
-25.8828
-24.8839
-23.8742
-22.8521
-21.816
-20.7638
-19.6935
-18.6027
-17.4894
-16.3516
-15.1874
-13.9956
-12.7755
-11.5266
-10.2496
-8.94562
-7.61653
-6.26489
-4.89387
-3.50719
-2.10901
-0.703801
</DataArray>
<DataArray Name="B" type="Float32" format="ascii">
-5
-5
-5
-5
-5
-5
-5
-5
-5
-5
-5
-5
-5
-5
-5
-5
-5
-5
-5
-5
-5
-5
-5
-5
-5
-5
-5
-5
-5
-5
-5
-5
-5
-5
-5
-5
-5
-5
-5
-5
-5
-5
-5
-5
-5
-5
-5
-5
-5
-5
-5
-5
-5
-5
-5
-5
-5
-5
-5
-5
-5
-5
-5
-5
-5
-5
-5
-5
-5
-5
-5
-5
-5
-5
-5
-5
-5
-5
-5
-5
-5
-5
-5
-5
-5
-5
-5
-5
-5
-5
-5
-5
-5
-5
-5
-5
-5
-5
-5
-5
</DataArray>
</CellData>
</Piece>
</RectilinearGrid>
</VTKFile>
