<?xml version="1.0"?>
<VTKFile type="RectilinearGrid">
<RectilinearGrid WholeExtent="0 100 0 0 0 0">
<Piece Extent="0 100 0 0 0 0">
<Coordinates>
<DataArray type="Float32" format="ascii">
0
10
20
30
40
50
60
70
80
90
100
110
120
130
140
150
160
170
180
190
200
210
220
230
240
250
260
270
280
290
300
310
320
330
340
350
360
370
380
390
400
410
420
430
440
450
460
470
480
490
500
510
520
530
540
550
560
570
580
590
600
610
620
630
640
650
660
670
680
690
700
710
720
730
740
750
760
770
780
790
800
810
820
830
840
850
860
870
880
890
900
910
920
930
940
950
960
970
980
990
1000
</DataArray>
<DataArray type="Float32" format="ascii">
0
</DataArray>
<DataArray type="Float32" format="ascii">
0
</DataArray>
</Coordinates>
<CellData>
<DataArray Name="h" type="Float32" format="ascii">
13.9999
13.9998
13.9993
13.9983
13.9958
13.9903
13.9794
13.9588
13.9231
13.8652
13.7775
13.6529
13.4858
13.273
13.014
12.7107
12.3667
11.9873
11.5786
11.1475
10.7018
10.2508
9.80555
9.37979
8.99006
8.65462
8.39012
8.20567
8.09718
8.0471
8.03174
8.0313
8.03471
8.03799
8.04047
8.04226
8.04352
8.04434
8.04475
8.04478
8.04438
8.04343
8.04148
8.03726
8.0273
8.00267
7.94216
7.79916
7.48417
6.87078
5.91053
4.8509
4.09093
3.71699
3.57219
3.52266
3.5068
3.50196
3.50054
3.50014
3.50003
3.50001
3.5
3.5
3.5
3.5
3.5
3.5
3.5
3.5
3.5
3.5
3.5
3.5
3.5
3.5
3.50001
3.50004
3.50011
3.50027
3.50062
3.50135
3.50271
3.50509
3.50889
3.51448
3.52197
3.53109
3.54113
3.55108
3.55988
3.56678
3.57154
3.5744
3.57587
3.5765
3.57672
3.57679
3.5768
3.5768
</DataArray>
<DataArray Name="hu" type="Float32" format="ascii">
0.000745717
0.00313425
0.00903132
0.0237032
0.0579313
0.132172
0.281628
0.56096
1.04586
1.82871
3.0069
4.66611
6.86332
9.61551
12.8973
16.6465
20.7748
25.1788
29.7491
34.3762
38.9528
43.3739
47.5348
51.3295
54.6513
57.4003
59.5014
60.9347
61.765
62.1414
62.2482
62.2378
62.1958
62.1528
62.1143
62.0792
62.0458
62.0133
61.9807
61.947
61.9108
61.8689
61.813
61.7196
61.5264
61.0757
59.9981
57.5038
52.1753
42.3741
28.4765
15.019
6.53617
2.75566
1.37161
0.909432
0.762733
0.718024
0.704951
0.701296
0.700323
0.700074
0.700015
0.700002
0.7
0.7
0.7
0.7
0.7
0.7
0.7
0.7
0.7
0.699999
0.699989
0.699959
0.699874
0.699633
0.699017
0.697559
0.694351
0.687806
0.675449
0.653928
0.619438
0.568759
0.50076
0.417807
0.326297
0.235529
0.155103
0.0919165
0.0482835
0.0221009
0.00863555
0.00281385
0.000754214
0.000172875
3.96002e-05
7.52154e-06
</DataArray>
<DataArray Name="B" type="Float32" format="ascii">
-5
-5
-5
-5
-5
-5
-5
-5
-5
-5
-5
-5
-5
-5
-5
-5
-5
-5
-5
-5
-5
-5
-5
-5
-5
-5
-5
-5
-5
-5
-5
-5
-5
-5
-5
-5
-5
-5
-5
-5
-5
-5
-5
-5
-5
-5
-5
-5
-5
-5
-5
-5
-5
-5
-5
-5
-5
-5
-5
-5
-5
-5
-5
-5
-5
-5
-5
-5
-5
-5
-5
-5
-5
-5
-5
-5
-5
-5
-5
-5
-5
-5
-5
-5
-5
-5
-5
-5
-5
-5
-5
-5
-5
-5
-5
-5
-5
-5
-5
-5
</DataArray>
</CellData>
</Piece>
</RectilinearGrid>
</VTKFile>
