<?xml version="1.0"?>
<VTKFile type="RectilinearGrid">
<RectilinearGrid WholeExtent="0 100 0 0 0 0">
<Piece Extent="0 100 0 0 0 0">
<Coordinates>
<DataArray type="Float32" format="ascii">
0
10
20
30
40
50
60
70
80
90
100
110
120
130
140
150
160
170
180
190
200
210
220
230
240
250
260
270
280
290
300
310
320
330
340
350
360
370
380
390
400
410
420
430
440
450
460
470
480
490
500
510
520
530
540
550
560
570
580
590
600
610
620
630
640
650
660
670
680
690
700
710
720
730
740
750
760
770
780
790
800
810
820
830
840
850
860
870
880
890
900
910
920
930
940
950
960
970
980
990
1000
</DataArray>
<DataArray type="Float32" format="ascii">
0
</DataArray>
<DataArray type="Float32" format="ascii">
0
</DataArray>
</Coordinates>
<CellData>
<DataArray Name="h" type="Float32" format="ascii">
10.4928
10.4923
10.4914
10.4901
10.4883
10.486
10.4833
10.4801
10.4764
10.4723
10.4676
10.4625
10.4569
10.4508
10.4442
10.437
10.4293
10.4211
10.4123
10.4029
10.3929
10.3824
10.3712
10.3593
10.3468
10.3336
10.3198
10.3052
10.2898
10.2737
10.2568
10.2391
10.2205
10.2011
10.1807
10.1592
10.1365
10.1122
10.0853
10.0543
10.0151
9.95926
9.86841
9.70368
9.39015
8.81312
7.89076
6.76354
5.80284
5.21806
4.92731
4.78705
4.71037
4.65867
4.61663
4.57841
4.5418
4.50597
4.47058
4.43553
4.40075
4.36622
4.33193
4.29787
4.26404
4.23042
4.19702
4.16384
4.13086
4.09811
4.06557
4.03327
4.0012
3.96939
3.93786
3.90662
3.87571
3.84516
3.81501
3.78531
3.75611
3.72748
3.69947
3.67218
3.64568
3.62007
3.59545
3.57193
3.54962
3.52864
3.50909
3.4911
3.47479
3.46025
3.44758
3.43688
3.42822
3.42167
3.41727
3.41507
</DataArray>
<DataArray Name="hu" type="Float32" format="ascii">
0.510027
1.52997
2.54957
3.56858
4.5868
5.60398
6.6199
7.63431
8.647
9.65773
10.6662
11.6723
12.6756
13.6759
14.6728
15.6662
16.6555
17.6406
18.6211
19.5967
20.5669
21.5314
22.4899
23.4418
24.3867
25.3242
26.2538
27.175
28.0874
28.9903
29.8833
30.7658
31.637
32.4962
33.3422
34.1733
34.9864
35.7753
36.5274
37.2153
37.7799
38.0921
37.8733
36.5464
33.0464
25.9318
14.7355
2.2246
-7.11853
-11.9394
-13.8123
-14.3283
-14.3015
-14.0678
-13.7563
-13.4159
-13.0651
-12.7108
-12.3558
-12.0012
-11.6477
-11.2954
-10.9447
-10.5957
-10.2486
-9.90373
-9.5612
-9.22121
-8.88398
-8.54969
-8.21855
-7.89073
-7.5664
-7.24572
-6.92886
-6.61594
-6.30707
-6.00235
-5.70186
-5.40562
-5.11365
-4.82589
-4.54228
-4.26269
-3.98695
-3.71486
-3.44616
-3.18058
-2.9178
-2.6575
-2.39933
-2.14298
-1.88814
-1.63448
-1.38176
-1.12975
-0.878245
-0.627094
-0.376172
-0.125377
</DataArray>
<DataArray Name="B" type="Float32" format="ascii">
-5
-5
-5
-5
-5
-5
-5
-5
-5
-5
-5
-5
-5
-5
-5
-5
-5
-5
-5
-5
-5
-5
-5
-5
-5
-5
-5
-5
-5
-5
-5
-5
-5
-5
-5
-5
-5
-5
-5
-5
-5
-5
-5
-5
-5
-5
-5
-5
-5
-5
-5
-5
-5
-5
-5
-5
-5
-5
-5
-5
-5
-5
-5
-5
-5
-5
-5
-5
-5
-5
-5
-5
-5
-5
-5
-5
-5
-5
-5
-5
-5
-5
-5
-5
-5
-5
-5
-5
-5
-5
-5
-5
-5
-5
-5
-5
-5
-5
-5
-5
</DataArray>
</CellData>
</Piece>
</RectilinearGrid>
</VTKFile>
