<?xml version="1.0"?>
<VTKFile type="RectilinearGrid">
<RectilinearGrid WholeExtent="0 100 0 0 0 0">
<Piece Extent="0 100 0 0 0 0">
<Coordinates>
<DataArray type="Float32" format="ascii">
0
10
20
30
40
50
60
70
80
90
100
110
120
130
140
150
160
170
180
190
200
210
220
230
240
250
260
270
280
290
300
310
320
330
340
350
360
370
380
390
400
410
420
430
440
450
460
470
480
490
500
510
520
530
540
550
560
570
580
590
600
610
620
630
640
650
660
670
680
690
700
710
720
730
740
750
760
770
780
790
800
810
820
830
840
850
860
870
880
890
900
910
920
930
940
950
960
970
980
990
1000
</DataArray>
<DataArray type="Float32" format="ascii">
0
</DataArray>
<DataArray type="Float32" format="ascii">
0
</DataArray>
</Coordinates>
<CellData>
<DataArray Name="h" type="Float32" format="ascii">
9.69203
9.69171
9.69106
9.69009
9.6888
9.68718
9.68523
9.68296
9.68036
9.67743
9.67416
9.67056
9.66662
9.66233
9.6577
9.65271
9.64737
9.64167
9.6356
9.62916
9.62234
9.61515
9.60756
9.59958
9.59119
9.58239
9.57317
9.56352
9.55343
9.54289
9.53189
9.52042
9.50847
9.49602
9.48307
9.46959
9.45557
9.44101
9.42587
9.41016
9.39385
9.37691
9.35932
9.34105
9.32204
9.30219
9.28127
9.25887
9.23407
9.20493
9.16721
9.11159
9.01778
8.84328
8.50755
7.89421
6.94392
5.84934
4.98528
4.49493
4.26172
4.15034
4.08807
4.04457
4.00828
3.9749
3.94286
3.91157
3.88083
3.85056
3.82073
3.79134
3.76241
3.73393
3.70594
3.67845
3.65148
3.62505
3.59921
3.57397
3.54937
3.52547
3.50229
3.47989
3.45832
3.43764
3.4179
3.39917
3.38151
3.36499
3.34967
3.33564
3.32295
3.31167
3.30187
3.29361
3.28693
3.28189
3.2785
3.2768
</DataArray>
<DataArray Name="hu" type="Float32" format="ascii">
0.479867
1.43955
2.39905
3.35828
4.31709
5.27539
6.23306
7.18996
8.14599
9.10101
10.0549
11.0075
11.9588
12.9084
13.8564
14.8026
15.7467
16.6887
17.6283
18.5655
19.4999
20.4315
21.3601
22.2854
23.2072
24.1253
25.0394
25.9494
26.8549
27.7557
28.6516
29.5421
30.427
31.3059
32.1785
33.0446
33.9036
34.7552
35.599
36.4345
37.2613
38.0789
38.8867
39.6838
40.4691
41.2407
41.9951
42.7254
43.4173
44.0396
44.5253
44.7276
44.3297
42.6804
38.6095
30.6705
18.8213
6.51394
-1.94659
-6.00457
-7.49207
-7.86997
-7.82196
-7.61697
-7.35535
-7.07413
-6.78713
-6.49962
-6.21373
-5.93043
-5.65029
-5.3737
-5.10101
-4.83254
-4.56862
-4.30959
-4.05575
-3.80745
-3.565
-3.32871
-3.09889
-2.87582
-2.65977
-2.45097
-2.24962
-2.05587
-1.86983
-1.69155
-1.52098
-1.35803
-1.20248
-1.05406
-0.912379
-0.776943
-0.647163
-0.522356
-0.401755
-0.284517
-0.169722
-0.0564081
</DataArray>
<DataArray Name="B" type="Float32" format="ascii">
-5
-5
-5
-5
-5
-5
-5
-5
-5
-5
-5
-5
-5
-5
-5
-5
-5
-5
-5
-5
-5
-5
-5
-5
-5
-5
-5
-5
-5
-5
-5
-5
-5
-5
-5
-5
-5
-5
-5
-5
-5
-5
-5
-5
-5
-5
-5
-5
-5
-5
-5
-5
-5
-5
-5
-5
-5
-5
-5
-5
-5
-5
-5
-5
-5
-5
-5
-5
-5
-5
-5
-5
-5
-5
-5
-5
-5
-5
-5
-5
-5
-5
-5
-5
-5
-5
-5
-5
-5
-5
-5
-5
-5
-5
-5
-5
-5
-5
-5
-5
</DataArray>
</CellData>
</Piece>
</RectilinearGrid>
</VTKFile>
