<?xml version="1.0"?>
<VTKFile type="RectilinearGrid">
<RectilinearGrid WholeExtent="0 100 0 0 0 0">
<Piece Extent="0 100 0 0 0 0">
<Coordinates>
<DataArray type="Float32" format="ascii">
0
10
20
30
40
50
60
70
80
90
100
110
120
130
140
150
160
170
180
190
200
210
220
230
240
250
260
270
280
290
300
310
320
330
340
350
360
370
380
390
400
410
420
430
440
450
460
470
480
490
500
510
520
530
540
550
560
570
580
590
600
610
620
630
640
650
660
670
680
690
700
710
720
730
740
750
760
770
780
790
800
810
820
830
840
850
860
870
880
890
900
910
920
930
940
950
960
970
980
990
1000
</DataArray>
<DataArray type="Float32" format="ascii">
0
</DataArray>
<DataArray type="Float32" format="ascii">
0
</DataArray>
</Coordinates>
<CellData>
<DataArray Name="h" type="Float32" format="ascii">
7.30252
7.30236
7.30206
7.30159
7.30097
7.3002
7.29928
7.2982
7.29697
7.29559
7.29406
7.29238
7.29055
7.28858
7.28646
7.2842
7.2818
7.27926
7.27658
7.27377
7.27083
7.26775
7.26456
7.26124
7.2578
7.25425
7.2506
7.24684
7.24298
7.23902
7.23498
7.23087
7.22668
7.22242
7.21811
7.21375
7.20936
7.20494
7.20051
7.19608
7.19167
7.18728
7.18294
7.17866
7.17447
7.17037
7.1664
7.16258
7.15893
7.15548
7.15226
7.1493
7.14664
7.1443
7.14233
7.14076
7.13964
7.13901
7.1389
7.13936
7.14044
7.14218
7.14464
7.14785
7.15185
7.15669
7.16241
7.16903
7.17658
7.18508
7.19454
7.20497
7.21636
7.22869
7.24194
7.25607
7.27103
7.28676
7.3032
7.32026
7.33782
7.35576
7.37384
7.3917
7.40863
7.42316
7.43211
7.42841
7.39632
7.30156
7.07531
6.60598
5.80395
4.80142
3.97619
3.52056
3.32841
3.25756
3.233
3.22541
</DataArray>
<DataArray Name="hu" type="Float32" format="ascii">
0.370559
1.11166
1.8527
2.59364
3.33445
4.07509
4.81551
5.55569
6.29557
7.03511
7.77427
8.51302
9.2513
9.98907
10.7263
11.4629
12.1989
12.9342
13.6687
14.4025
15.1353
15.8673
16.5983
17.3283
18.0572
18.7849
19.5114
20.2366
20.9605
21.6829
22.4037
23.1229
23.8404
24.5561
25.2699
25.9816
26.6912
27.3986
28.1036
28.8061
29.5059
30.2028
30.8969
31.5877
32.2753
32.9593
33.6397
34.3161
34.9883
35.6562
36.3194
36.9776
37.6307
38.2782
38.9199
39.5555
40.1846
40.8069
41.422
42.0296
42.6293
43.2208
43.8035
44.3773
44.9416
45.4963
46.0409
46.5751
47.0988
47.6117
48.1137
48.6045
49.0842
49.5528
50.0104
50.4569
50.8927
51.3178
51.7324
52.1366
52.5303
52.9127
53.2819
53.6336
53.9574
54.2304
54.4004
54.3497
53.816
52.2374
48.5351
41.1769
29.5909
16.7478
7.45362
2.84175
1.01919
0.361755
0.125882
0.0309401
</DataArray>
<DataArray Name="B" type="Float32" format="ascii">
-5
-5
-5
-5
-5
-5
-5
-5
-5
-5
-5
-5
-5
-5
-5
-5
-5
-5
-5
-5
-5
-5
-5
-5
-5
-5
-5
-5
-5
-5
-5
-5
-5
-5
-5
-5
-5
-5
-5
-5
-5
-5
-5
-5
-5
-5
-5
-5
-5
-5
-5
-5
-5
-5
-5
-5
-5
-5
-5
-5
-5
-5
-5
-5
-5
-5
-5
-5
-5
-5
-5
-5
-5
-5
-5
-5
-5
-5
-5
-5
-5
-5
-5
-5
-5
-5
-5
-5
-5
-5
-5
-5
-5
-5
-5
-5
-5
-5
-5
-5
</DataArray>
</CellData>
</Piece>
</RectilinearGrid>
</VTKFile>
