<?xml version="1.0"?>
<VTKFile type="RectilinearGrid">
<RectilinearGrid WholeExtent="0 100 0 0 0 0">
<Piece Extent="0 100 0 0 0 0">
<Coordinates>
<DataArray type="Float32" format="ascii">
0
10
20
30
40
50
60
70
80
90
100
110
120
130
140
150
160
170
180
190
200
210
220
230
240
250
260
270
280
290
300
310
320
330
340
350
360
370
380
390
400
410
420
430
440
450
460
470
480
490
500
510
520
530
540
550
560
570
580
590
600
610
620
630
640
650
660
670
680
690
700
710
720
730
740
750
760
770
780
790
800
810
820
830
840
850
860
870
880
890
900
910
920
930
940
950
960
970
980
990
1000
</DataArray>
<DataArray type="Float32" format="ascii">
0
</DataArray>
<DataArray type="Float32" format="ascii">
0
</DataArray>
</Coordinates>
<CellData>
<DataArray Name="h" type="Float32" format="ascii">
10.3027
10.3023
10.3015
10.3003
10.2986
10.2966
10.2941
10.2911
10.2878
10.284
10.2798
10.2751
10.27
10.2644
10.2584
10.2519
10.2449
10.2374
10.2294
10.2209
10.2119
10.2023
10.1922
10.1815
10.1702
10.1583
10.1458
10.1327
10.1189
10.1045
10.0893
10.0735
10.0569
10.0395
10.0214
10.0024
9.9825
9.96166
9.93969
9.91627
9.89071
9.86155
9.82564
9.77609
9.69785
9.55886
9.29514
8.80015
7.96919
6.86909
5.84119
5.16976
4.82615
4.66261
4.57721
4.52265
4.47999
4.44197
4.40588
4.37069
4.33602
4.30171
4.2677
4.23397
4.20051
4.16731
4.13437
4.10167
4.06924
4.03705
4.00513
3.97348
3.94211
3.91102
3.88025
3.84981
3.81972
3.79002
3.76074
3.73192
3.70362
3.67588
3.64877
3.62236
3.59672
3.57195
3.54813
3.52536
3.50375
3.48341
3.46445
3.44698
3.43111
3.41695
3.40461
3.39417
3.38572
3.37932
3.37502
3.37286
</DataArray>
<DataArray Name="hu" type="Float32" format="ascii">
0.50352
1.51047
2.51713
3.52331
4.52883
5.53348
6.53707
7.53942
8.54031
9.53953
10.5369
11.5321
12.525
13.5153
14.5028
15.4872
16.4682
17.4457
18.4193
19.3887
20.3537
21.3138
22.2687
23.2181
24.1616
25.0989
26.0294
26.9528
27.8687
28.7766
29.6761
30.5666
31.4475
32.3184
33.1787
34.0275
34.864
35.6865
36.4924
37.2764
38.028
38.725
39.3188
39.7035
39.6494
38.6726
35.8421
29.7465
19.4415
6.79021
-3.65
-9.48851
-11.901
-12.6468
-12.7149
-12.5245
-12.2373
-11.9144
-11.5785
-11.2385
-10.8976
-10.5573
-10.2182
-9.8807
-9.54501
-9.21138
-8.88005
-8.55122
-8.22512
-7.90199
-7.58202
-7.26545
-6.95249
-6.64334
-6.33819
-6.03725
-5.74069
-5.44867
-5.16133
-4.8788
-4.60117
-4.32851
-4.06084
-3.79814
-3.54037
-3.28742
-3.03915
-2.79536
-2.55581
-2.32023
-2.0883
-1.85971
-1.63409
-1.41107
-1.19029
-0.971381
-0.75398
-0.537739
-0.322314
-0.107382
</DataArray>
<DataArray Name="B" type="Float32" format="ascii">
-5
-5
-5
-5
-5
-5
-5
-5
-5
-5
-5
-5
-5
-5
-5
-5
-5
-5
-5
-5
-5
-5
-5
-5
-5
-5
-5
-5
-5
-5
-5
-5
-5
-5
-5
-5
-5
-5
-5
-5
-5
-5
-5
-5
-5
-5
-5
-5
-5
-5
-5
-5
-5
-5
-5
-5
-5
-5
-5
-5
-5
-5
-5
-5
-5
-5
-5
-5
-5
-5
-5
-5
-5
-5
-5
-5
-5
-5
-5
-5
-5
-5
-5
-5
-5
-5
-5
-5
-5
-5
-5
-5
-5
-5
-5
-5
-5
-5
-5
-5
</DataArray>
</CellData>
</Piece>
</RectilinearGrid>
</VTKFile>
