<?xml version="1.0"?>
<VTKFile type="RectilinearGrid">
<RectilinearGrid WholeExtent="0 100 0 0 0 0">
<Piece Extent="0 100 0 0 0 0">
<Coordinates>
<DataArray type="Float32" format="ascii">
0
10
20
30
40
50
60
70
80
90
100
110
120
130
140
150
160
170
180
190
200
210
220
230
240
250
260
270
280
290
300
310
320
330
340
350
360
370
380
390
400
410
420
430
440
450
460
470
480
490
500
510
520
530
540
550
560
570
580
590
600
610
620
630
640
650
660
670
680
690
700
710
720
730
740
750
760
770
780
790
800
810
820
830
840
850
860
870
880
890
900
910
920
930
940
950
960
970
980
990
1000
</DataArray>
<DataArray type="Float32" format="ascii">
0
</DataArray>
<DataArray type="Float32" format="ascii">
0
</DataArray>
</Coordinates>
<CellData>
<DataArray Name="h" type="Float32" format="ascii">
14
14
14
14
14
14
14
14
14
14
14
14
14
13.9998
13.9992
13.9974
13.9918
13.9771
13.9431
13.8735
13.7465
13.5391
13.2326
12.8176
12.2958
11.6799
10.992
10.2653
9.54698
8.9023
8.40762
8.1158
8.00681
7.99377
8.00065
8.00329
7.99856
7.97431
7.89487
7.6783
7.18305
6.28517
5.1376
4.21639
3.74627
3.5723
3.51902
3.50456
3.50099
3.5002
3.50003
3.5
3.5
3.5
3.5
3.5
3.5
3.5
3.5
3.5
3.5
3.5
3.5
3.5
3.5
3.5
3.5
3.5
3.5
3.5
3.5
3.5
3.5
3.5
3.5
3.5
3.5
3.5
3.5
3.5
3.5
3.5
3.5
3.5
3.5
3.50002
3.50007
3.50025
3.50074
3.50197
3.50468
3.50984
3.51829
3.5301
3.5439
3.55716
3.56735
3.57339
3.57597
3.57669
</DataArray>
<DataArray Name="hu" type="Float32" format="ascii">
8.35406e-24
1.2238e-21
1.1338e-19
1.36364e-17
1.10324e-15
6.24067e-14
2.75374e-12
2.0716e-10
1.04246e-08
3.73162e-07
1.14781e-05
0.000115728
0.000591092
0.00262773
0.0103367
0.0361402
0.112556
0.312421
0.774092
1.71628
3.41898
6.15795
10.113
15.2967
21.5376
28.5162
35.8212
42.9951
49.5609
55.0402
59.0086
61.2625
62.068
62.1121
61.9796
61.8379
61.6142
61.0728
59.5799
55.7584
47.5042
33.8456
18.5536
7.8924
3.04638
1.37328
0.875812
0.742028
0.709172
0.701818
0.700325
0.70005
0.700006
0.7
0.7
0.7
0.7
0.7
0.7
0.7
0.7
0.7
0.7
0.7
0.7
0.7
0.7
0.7
0.7
0.7
0.7
0.7
0.7
0.7
0.7
0.7
0.7
0.7
0.7
0.7
0.7
0.7
0.7
0.699993
0.699957
0.699823
0.699338
0.697767
0.693304
0.682131
0.657627
0.610903
0.534146
0.426814
0.301012
0.179875
0.0865752
0.0312554
0.00750979
0.00090717
</DataArray>
<DataArray Name="B" type="Float32" format="ascii">
-5
-5
-5
-5
-5
-5
-5
-5
-5
-5
-5
-5
-5
-5
-5
-5
-5
-5
-5
-5
-5
-5
-5
-5
-5
-5
-5
-5
-5
-5
-5
-5
-5
-5
-5
-5
-5
-5
-5
-5
-5
-5
-5
-5
-5
-5
-5
-5
-5
-5
-5
-5
-5
-5
-5
-5
-5
-5
-5
-5
-5
-5
-5
-5
-5
-5
-5
-5
-5
-5
-5
-5
-5
-5
-5
-5
-5
-5
-5
-5
-5
-5
-5
-5
-5
-5
-5
-5
-5
-5
-5
-5
-5
-5
-5
-5
-5
-5
-5
-5
</DataArray>
</CellData>
</Piece>
</RectilinearGrid>
</VTKFile>
