<?xml version="1.0"?>
<VTKFile type="RectilinearGrid">
<RectilinearGrid WholeExtent="0 100 0 0 0 0">
<Piece Extent="0 100 0 0 0 0">
<Coordinates>
<DataArray type="Float32" format="ascii">
0
10
20
30
40
50
60
70
80
90
100
110
120
130
140
150
160
170
180
190
200
210
220
230
240
250
260
270
280
290
300
310
320
330
340
350
360
370
380
390
400
410
420
430
440
450
460
470
480
490
500
510
520
530
540
550
560
570
580
590
600
610
620
630
640
650
660
670
680
690
700
710
720
730
740
750
760
770
780
790
800
810
820
830
840
850
860
870
880
890
900
910
920
930
940
950
960
970
980
990
1000
</DataArray>
<DataArray type="Float32" format="ascii">
0
</DataArray>
<DataArray type="Float32" format="ascii">
0
</DataArray>
</Coordinates>
<CellData>
<DataArray Name="h" type="Float32" format="ascii">
5.50553
5.50551
5.50546
5.50538
5.50529
5.50517
5.50504
5.50489
5.50474
5.50457
5.5044
5.50424
5.50408
5.50394
5.50382
5.50373
5.50368
5.50368
5.50374
5.50387
5.50408
5.50439
5.5048
5.50534
5.50603
5.50687
5.50789
5.50911
5.51055
5.51223
5.51418
5.51643
5.51899
5.5219
5.5252
5.5289
5.53304
5.53766
5.54278
5.54845
5.55469
5.56154
5.56904
5.57722
5.5861
5.59571
5.60609
5.61726
5.62923
5.64201
5.65562
5.67007
5.68534
5.70142
5.71831
5.73598
5.75441
5.77355
5.79338
5.81385
5.83491
5.85653
5.87864
5.9012
5.92418
5.94757
5.97139
5.99586
6.02159
6.05031
6.08666
6.14264
6.24807
6.46987
6.92557
7.7199
8.76367
9.7461
10.4315
10.8194
11.0155
11.1104
11.1568
11.1806
11.1941
11.2027
11.209
11.2141
11.2184
11.2222
11.2256
11.2286
11.2313
11.2336
11.2355
11.2371
11.2384
11.2394
11.2401
11.2404
</DataArray>
<DataArray Name="hu" type="Float32" format="ascii">
0.28242
0.84723
1.41194
1.97649
2.54081
3.10484
3.66851
4.23174
4.79447
5.35662
5.91812
6.4789
7.03887
7.59796
8.15607
8.71311
9.269
9.82365
10.3769
10.9288
11.479
12.0276
12.5743
13.1192
13.6619
14.2024
14.7405
15.2761
15.809
16.339
16.866
17.3897
17.91
18.4266
18.9394
19.4481
19.9525
20.4524
20.9476
21.4378
21.9228
22.4024
22.8764
23.3445
23.8066
24.2625
24.7121
25.1553
25.5919
26.022
26.4455
26.8624
27.2729
27.677
28.0749
28.4668
28.8531
29.2339
29.6097
29.9807
30.3474
30.7101
31.0693
31.4252
31.7783
32.1287
32.4759
32.8186
33.152
33.4628
33.7158
33.8182
33.5341
32.3002
28.9808
22.1451
11.9058
1.3079
-6.41953
-10.6541
-12.446
-12.9045
-12.7131
-12.2201
-11.5895
-10.8962
-10.1738
-9.43734
-8.6936
-7.94564
-7.19493
-6.44219
-5.68784
-4.93212
-4.17525
-3.4174
-2.65879
-1.89956
-1.13991
-0.38
</DataArray>
<DataArray Name="B" type="Float32" format="ascii">
-5
-5
-5
-5
-5
-5
-5
-5
-5
-5
-5
-5
-5
-5
-5
-5
-5
-5
-5
-5
-5
-5
-5
-5
-5
-5
-5
-5
-5
-5
-5
-5
-5
-5
-5
-5
-5
-5
-5
-5
-5
-5
-5
-5
-5
-5
-5
-5
-5
-5
-5
-5
-5
-5
-5
-5
-5
-5
-5
-5
-5
-5
-5
-5
-5
-5
-5
-5
-5
-5
-5
-5
-5
-5
-5
-5
-5
-5
-5
-5
-5
-5
-5
-5
-5
-5
-5
-5
-5
-5
-5
-5
-5
-5
-5
-5
-5
-5
-5
-5
</DataArray>
</CellData>
</Piece>
</RectilinearGrid>
</VTKFile>
