<?xml version="1.0"?>
<VTKFile type="RectilinearGrid">
<RectilinearGrid WholeExtent="0 100 0 0 0 0">
<Piece Extent="0 100 0 0 0 0">
<Coordinates>
<DataArray type="Float32" format="ascii">
0
10
20
30
40
50
60
70
80
90
100
110
120
130
140
150
160
170
180
190
200
210
220
230
240
250
260
270
280
290
300
310
320
330
340
350
360
370
380
390
400
410
420
430
440
450
460
470
480
490
500
510
520
530
540
550
560
570
580
590
600
610
620
630
640
650
660
670
680
690
700
710
720
730
740
750
760
770
780
790
800
810
820
830
840
850
860
870
880
890
900
910
920
930
940
950
960
970
980
990
1000
</DataArray>
<DataArray type="Float32" format="ascii">
0
</DataArray>
<DataArray type="Float32" format="ascii">
0
</DataArray>
</Coordinates>
<CellData>
<DataArray Name="h" type="Float32" format="ascii">
14
14
14
14
13.9999
13.9998
13.9993
13.998
13.9948
13.9876
13.9725
13.9435
13.8922
13.8088
13.6829
13.5058
13.2718
12.9792
12.6298
12.2287
11.7834
11.303
10.7985
10.2834
9.77409
9.29161
8.8613
8.51005
8.25828
8.10888
8.04176
8.02327
8.0239
8.02817
8.03163
8.03397
8.03545
8.03621
8.03624
8.03531
8.03246
8.02478
8.00425
7.95077
7.81891
7.51948
6.92221
5.96608
4.88824
4.10426
3.71817
3.57056
3.5213
3.50608
3.50164
3.50042
3.5001
3.50002
3.5
3.5
3.5
3.5
3.5
3.5
3.5
3.5
3.5
3.5
3.5
3.5
3.5
3.5
3.5
3.5
3.5
3.5
3.5
3.5
3.5
3.50002
3.50005
3.50014
3.50037
3.50088
3.50195
3.50398
3.50748
3.51297
3.52069
3.53044
3.54137
3.55218
3.56152
3.56851
3.57295
3.57532
3.57635
3.5767
3.57678
3.5768
</DataArray>
<DataArray Name="hu" type="Float32" format="ascii">
1.14106e-07
7.35588e-06
5.9352e-05
0.000256768
0.000951451
0.00317073
0.00966601
0.0271838
0.0705822
0.169289
0.375281
0.769838
1.46395
2.58767
4.26787
6.60044
9.62727
13.3266
17.6181
22.3784
27.4584
32.6982
37.9356
43.0098
47.7599
52.0243
55.6438
58.479
60.4512
61.5986
62.103
62.2288
62.2031
62.1458
62.0917
62.0426
61.9959
61.949
61.8991
61.8397
61.7523
61.5841
61.1924
60.2258
57.9093
52.8135
43.2047
29.2587
15.4738
6.68016
2.76798
1.35647
0.896837
0.756067
0.715143
0.703861
0.700926
0.700209
0.700043
0.700007
0.7
0.7
0.7
0.7
0.7
0.7
0.7
0.7
0.7
0.7
0.7
0.7
0.7
0.7
0.7
0.7
0.699999
0.69999
0.699957
0.699856
0.69955
0.698727
0.696689
0.692049
0.682385
0.664006
0.632232
0.582493
0.512334
0.423707
0.324143
0.225474
0.140024
0.0760889
0.0353339
0.0136128
0.00419007
0.000982701
0.000168797
2.05945e-05
</DataArray>
<DataArray Name="B" type="Float32" format="ascii">
-5
-5
-5
-5
-5
-5
-5
-5
-5
-5
-5
-5
-5
-5
-5
-5
-5
-5
-5
-5
-5
-5
-5
-5
-5
-5
-5
-5
-5
-5
-5
-5
-5
-5
-5
-5
-5
-5
-5
-5
-5
-5
-5
-5
-5
-5
-5
-5
-5
-5
-5
-5
-5
-5
-5
-5
-5
-5
-5
-5
-5
-5
-5
-5
-5
-5
-5
-5
-5
-5
-5
-5
-5
-5
-5
-5
-5
-5
-5
-5
-5
-5
-5
-5
-5
-5
-5
-5
-5
-5
-5
-5
-5
-5
-5
-5
-5
-5
-5
-5
</DataArray>
</CellData>
</Piece>
</RectilinearGrid>
</VTKFile>
