<?xml version="1.0"?>
<VTKFile type="RectilinearGrid">
<RectilinearGrid WholeExtent="0 100 0 0 0 0">
<Piece Extent="0 100 0 0 0 0">
<Coordinates>
<DataArray type="Float32" format="ascii">
0
10
20
30
40
50
60
70
80
90
100
110
120
130
140
150
160
170
180
190
200
210
220
230
240
250
260
270
280
290
300
310
320
330
340
350
360
370
380
390
400
410
420
430
440
450
460
470
480
490
500
510
520
530
540
550
560
570
580
590
600
610
620
630
640
650
660
670
680
690
700
710
720
730
740
750
760
770
780
790
800
810
820
830
840
850
860
870
880
890
900
910
920
930
940
950
960
970
980
990
1000
</DataArray>
<DataArray type="Float32" format="ascii">
0
</DataArray>
<DataArray type="Float32" format="ascii">
0
</DataArray>
</Coordinates>
<CellData>
<DataArray Name="h" type="Float32" format="ascii">
3.32209
3.33072
3.34785
3.37327
3.40663
3.44753
3.49547
3.54995
3.61041
3.67629
3.74704
3.82212
3.90102
3.98326
4.06839
4.15602
4.24578
4.33733
4.43038
4.52467
4.61998
4.71609
4.81282
4.91002
5.00753
5.10523
5.203
5.30074
5.39834
5.49573
5.5928
5.68948
5.78569
5.88136
5.97642
6.07079
6.16442
6.25723
6.34917
6.4402
6.53025
6.6193
6.7073
6.79422
6.88003
6.96468
7.04811
7.13021
7.21087
7.28989
7.36704
7.44202
7.5145
7.5841
7.65043
7.71311
7.77178
7.82617
7.87604
7.92128
7.96185
7.99779
8.02925
8.05642
8.07959
8.09907
8.11519
8.12834
8.13889
8.1472
8.15363
8.1585
8.16212
8.16475
8.1666
8.16786
8.16869
8.1692
8.16947
8.16958
8.16959
8.16952
8.16943
8.1694
8.16965
8.17081
8.17477
8.18704
8.22292
8.3223
8.57615
9.13816
10.1194
11.3574
12.4579
13.1806
13.5625
13.7377
13.8103
13.8357
</DataArray>
<DataArray Name="hu" type="Float32" format="ascii">
0.125106
0.38215
0.659219
0.968118
1.31859
1.71793
2.17094
2.68013
3.24604
3.86771
4.54313
5.26958
6.04402
6.86326
7.72415
8.62367
9.55896
10.5274
11.5266
12.5542
13.6083
14.687
15.7886
16.9115
18.0541
19.2151
20.3932
21.587
22.7953
24.0169
25.2505
26.495
27.749
29.0113
30.2804
31.555
32.8335
34.1142
35.3953
36.6748
37.9504
39.2198
40.4803
41.7289
42.9627
44.1783
45.3725
46.5416
47.6825
48.7917
49.8662
50.9031
51.8998
52.8536
53.7622
54.6234
55.4349
56.1944
56.8999
57.5496
58.1419
58.6759
59.1515
59.5692
59.9309
60.2391
60.4974
60.7101
60.8821
61.0185
61.1245
61.2052
61.2652
61.3087
61.3394
61.3604
61.374
61.3823
61.3867
61.3885
61.3884
61.3868
61.3842
61.3802
61.3736
61.3598
61.3251
61.2295
60.9594
60.2091
58.2244
53.4888
44.2593
31.1427
18.2431
9.13959
4.10664
1.71896
0.664825
0.171896
</DataArray>
<DataArray Name="B" type="Float32" format="ascii">
-5
-5
-5
-5
-5
-5
-5
-5
-5
-5
-5
-5
-5
-5
-5
-5
-5
-5
-5
-5
-5
-5
-5
-5
-5
-5
-5
-5
-5
-5
-5
-5
-5
-5
-5
-5
-5
-5
-5
-5
-5
-5
-5
-5
-5
-5
-5
-5
-5
-5
-5
-5
-5
-5
-5
-5
-5
-5
-5
-5
-5
-5
-5
-5
-5
-5
-5
-5
-5
-5
-5
-5
-5
-5
-5
-5
-5
-5
-5
-5
-5
-5
-5
-5
-5
-5
-5
-5
-5
-5
-5
-5
-5
-5
-5
-5
-5
-5
-5
-5
</DataArray>
</CellData>
</Piece>
</RectilinearGrid>
</VTKFile>
