<?xml version="1.0"?>
<VTKFile type="RectilinearGrid">
<RectilinearGrid WholeExtent="0 100 0 0 0 0">
<Piece Extent="0 100 0 0 0 0">
<Coordinates>
<DataArray type="Float32" format="ascii">
0
10
20
30
40
50
60
70
80
90
100
110
120
130
140
150
160
170
180
190
200
210
220
230
240
250
260
270
280
290
300
310
320
330
340
350
360
370
380
390
400
410
420
430
440
450
460
470
480
490
500
510
520
530
540
550
560
570
580
590
600
610
620
630
640
650
660
670
680
690
700
710
720
730
740
750
760
770
780
790
800
810
820
830
840
850
860
870
880
890
900
910
920
930
940
950
960
970
980
990
1000
</DataArray>
<DataArray type="Float32" format="ascii">
0
</DataArray>
<DataArray type="Float32" format="ascii">
0
</DataArray>
</Coordinates>
<CellData>
<DataArray Name="h" type="Float32" format="ascii">
5.6724
5.67225
5.67336
5.6731
5.67525
5.67488
5.67811
5.67761
5.68204
5.68134
5.68675
5.68619
5.69244
5.69208
5.69923
5.69909
5.70727
5.70746
5.7163
5.71761
5.72624
5.72959
5.73738
5.74313
5.75024
5.7581
5.7648
5.77478
5.78117
5.79308
5.79962
5.81295
5.82027
5.83445
5.84304
5.85792
5.86798
5.88334
5.89506
5.91102
5.9243
5.94107
5.95576
5.9734
5.98941
6.00793
6.02508
6.04455
6.06269
6.08309
6.10197
6.12288
6.14205
6.16282
6.18119
6.1986
6.19557
6.11356
5.80126
5.39351
5.2073
5.19833
5.27595
5.41593
5.60385
5.80921
5.99188
6.12613
6.21089
6.25871
6.28307
6.29367
6.2965
6.29507
6.29141
6.28666
6.28147
6.27622
6.27111
6.26625
6.2617
6.25749
6.25363
6.25011
6.24694
6.2441
6.24158
6.23939
6.23751
6.23593
6.23465
6.23363
6.23287
6.23232
6.23195
6.23171
6.23156
6.23143
6.23127
6.23112
</DataArray>
<DataArray Name="hu" type="Float32" format="ascii">
0.172133
0.460128
0.805797
1.092
1.44126
1.72201
2.07698
2.35032
2.71336
2.97833
3.34528
3.6059
3.9744
4.22863
4.59808
4.84512
5.21611
5.45657
5.82308
6.06786
6.41623
6.67851
6.99866
7.28205
7.57616
7.87514
8.14632
8.45912
8.70794
9.03037
9.26219
9.5852
9.80857
10.1227
10.3434
10.6457
10.866
11.1525
11.3743
11.6469
11.8685
12.1298
12.3489
12.6002
12.8171
13.0601
13.2726
13.5082
13.7137
13.9403
14.1351
14.3459
14.522
14.7039
14.8376
14.9257
14.6987
13.3321
8.87864
3.2036
0.0416335
-1.55983
-3.00262
-4.79006
-6.98976
-9.33354
-11.3701
-12.7858
-13.5615
-13.8534
-13.8333
-13.6258
-13.3084
-12.9266
-12.5067
-12.0639
-11.6071
-11.1413
-10.6695
-10.1935
-9.71426
-9.23223
-8.74781
-8.26119
-7.77251
-7.2819
-6.78941
-6.29508
-5.79894
-5.30107
-4.80152
-4.30042
-3.7979
-3.29414
-2.7893
-2.28359
-1.77718
-1.27025
-0.762984
-0.254648
</DataArray>
<DataArray Name="B" type="Float32" format="ascii">
-20.8
-20.6
-20.4
-20.2
-20
-19.8
-19.6
-19.4
-19.2
-19
-18.8
-18.6
-18.4
-18.2
-18
-17.8
-17.6
-17.4
-17.2
-17
-16.8
-16.6
-16.4
-16.2
-16
-15.8
-15.6
-15.4
-15.2
-15
-14.8
-14.6
-14.4
-14.2
-14
-13.8
-13.6
-13.4
-13.2
-13
-12.8
-12.6
-12.4
-12.2
-12
-11.8
-11.6
-11.4
-11.2
-11
-10.8
-10.6
-10.4
-10.2
-10
-9.8
-9.6
-9.4
-9.2
-9
-8.8
-8.6
-8.4
-8.2
-8
-7.8
-7.6
-7.4
-7.2
-7
-6.8
-6.6
-6.4
-6.2
-6
-5.8
-5.6
-5.4
-5.2
-5
-4.8
-4.6
-4.4
-4.2
-4
-3.8
-3.6
-3.4
-3.2
-3
-2.8
-2.6
-2.4
-2.2
-2
-1.8
-1.6
-1.4
-1.2
-1
</DataArray>
</CellData>
</Piece>
</RectilinearGrid>
</VTKFile>
