<?xml version="1.0"?>
<VTKFile type="RectilinearGrid">
<RectilinearGrid WholeExtent="0 100 0 0 0 0">
<Piece Extent="0 100 0 0 0 0">
<Coordinates>
<DataArray type="Float32" format="ascii">
0
10
20
30
40
50
60
70
80
90
100
110
120
130
140
150
160
170
180
190
200
210
220
230
240
250
260
270
280
290
300
310
320
330
340
350
360
370
380
390
400
410
420
430
440
450
460
470
480
490
500
510
520
530
540
550
560
570
580
590
600
610
620
630
640
650
660
670
680
690
700
710
720
730
740
750
760
770
780
790
800
810
820
830
840
850
860
870
880
890
900
910
920
930
940
950
960
970
980
990
1000
</DataArray>
<DataArray type="Float32" format="ascii">
0
</DataArray>
<DataArray type="Float32" format="ascii">
0
</DataArray>
</Coordinates>
<CellData>
<DataArray Name="h" type="Float32" format="ascii">
5.15111
5.15702
5.16905
5.18752
5.21278
5.24516
5.28495
5.33233
5.38734
5.44985
5.51961
5.59624
5.67923
5.76796
5.86178
5.95996
6.06174
6.16634
6.27292
6.38059
6.48837
6.59518
6.69978
6.80079
6.89665
6.98568
7.06612
7.1363
7.19486
7.24108
7.27509
7.29791
7.31087
7.31422
7.30415
7.26663
7.16694
6.94345
6.5448
6.02804
5.56048
5.25221
5.09029
5.01727
4.98845
4.97941
4.97871
4.98134
4.98522
4.98951
4.99388
4.99815
5.00221
5.00599
5.00939
5.01238
5.01492
5.01699
5.01862
5.01982
5.02065
5.02114
5.02135
5.02133
5.02112
5.02076
5.02029
5.01973
5.0191
5.01842
5.01771
5.01699
5.01629
5.01571
5.01548
5.01619
5.01931
5.02837
5.05164
5.10749
5.23261
5.48408
5.90365
6.43267
6.90618
7.20975
7.35923
7.41975
7.44059
7.44806
7.45443
7.4647
7.48015
7.5001
7.52295
7.54668
7.56919
7.58842
7.6024
7.60975
</DataArray>
<DataArray Name="hu" type="Float32" format="ascii">
0.142551
0.438929
0.768307
1.15103
1.6055
2.14726
2.78838
3.53693
4.39719
5.36994
6.45263
7.64031
8.92602
10.3013
11.7566
13.2816
14.865
16.4946
18.1574
19.8392
21.5242
23.1951
24.8323
26.4132
27.9123
29.3012
30.5497
31.6291
32.5161
33.1985
33.6791
33.9753
34.1091
34.0846
33.8393
33.1482
31.4633
27.8485
21.6394
13.9223
7.2266
2.95281
0.73779
-0.281379
-0.725466
-0.921428
-1.01953
-1.08337
-1.13765
-1.19052
-1.2435
-1.29571
-1.34569
-1.39205
-1.4337
-1.46992
-1.50039
-1.52508
-1.54422
-1.55824
-1.56769
-1.57319
-1.57536
-1.57482
-1.57213
-1.56781
-1.56229
-1.5559
-1.54891
-1.54153
-1.53393
-1.52634
-1.51919
-1.51347
-1.51162
-1.5197
-1.55247
-1.64532
-1.8806
-2.4422
-3.70615
-6.2979
-10.7926
-16.7439
-22.2751
-25.7635
-27.1389
-27.1051
-26.2573
-24.9225
-23.2601
-21.3515
-19.245
-16.9758
-14.5728
-12.0619
-9.46624
-6.80705
-4.10414
-1.3721
</DataArray>
<DataArray Name="B" type="Float32" format="ascii">
-20.8
-20.6
-20.4
-20.2
-20
-19.8
-19.6
-19.4
-19.2
-19
-18.8
-18.6
-18.4
-18.2
-18
-17.8
-17.6
-17.4
-17.2
-17
-16.8
-16.6
-16.4
-16.2
-16
-15.8
-15.6
-15.4
-15.2
-15
-14.8
-14.6
-14.4
-14.2
-14
-13.8
-13.6
-13.4
-13.2
-13
-12.8
-12.6
-12.4
-12.2
-12
-11.8
-11.6
-11.4
-11.2
-11
-10.8
-10.6
-10.4
-10.2
-10
-9.8
-9.6
-9.4
-9.2
-9
-8.8
-8.6
-8.4
-8.2
-8
-7.8
-7.6
-7.4
-7.2
-7
-6.8
-6.6
-6.4
-6.2
-6
-5.8
-5.6
-5.4
-5.2
-5
-4.8
-4.6
-4.4
-4.2
-4
-3.8
-3.6
-3.4
-3.2
-3
-2.8
-2.6
-2.4
-2.2
-2
-1.8
-1.6
-1.4
-1.2
-1
</DataArray>
</CellData>
</Piece>
</RectilinearGrid>
</VTKFile>
