<?xml version="1.0"?>
<VTKFile type="RectilinearGrid">
<RectilinearGrid WholeExtent="0 100 0 0 0 0">
<Piece Extent="0 100 0 0 0 0">
<Coordinates>
<DataArray type="Float32" format="ascii">
0
10
20
30
40
50
60
70
80
90
100
110
120
130
140
150
160
170
180
190
200
210
220
230
240
250
260
270
280
290
300
310
320
330
340
350
360
370
380
390
400
410
420
430
440
450
460
470
480
490
500
510
520
530
540
550
560
570
580
590
600
610
620
630
640
650
660
670
680
690
700
710
720
730
740
750
760
770
780
790
800
810
820
830
840
850
860
870
880
890
900
910
920
930
940
950
960
970
980
990
1000
</DataArray>
<DataArray type="Float32" format="ascii">
0
</DataArray>
<DataArray type="Float32" format="ascii">
0
</DataArray>
</Coordinates>
<CellData>
<DataArray Name="h" type="Float32" format="ascii">
5.16808
5.17517
5.18954
5.21141
5.24098
5.27839
5.32373
5.37696
5.4379
5.50628
5.58167
5.66358
5.75141
5.8445
5.94213
6.04353
6.14789
6.25438
6.36211
6.47009
6.57726
6.68243
6.7842
6.88105
6.97125
7.05302
7.12464
7.18471
7.23242
7.26783
7.29192
7.3061
7.31105
7.3042
7.27456
7.1931
7.00358
6.64522
6.14323
5.65121
5.30498
5.11458
5.02563
4.98894
4.97614
4.97356
4.97518
4.97848
4.98245
4.9867
4.99106
4.99539
4.99961
5.0036
5.00728
5.01057
5.01341
5.01579
5.01771
5.01917
5.02023
5.02092
5.0213
5.02141
5.02131
5.02102
5.02061
5.02008
5.01948
5.01882
5.01812
5.01739
5.01666
5.01597
5.01545
5.01544
5.01676
5.02144
5.03441
5.067
5.14377
5.31066
5.62768
6.10956
6.64666
7.07092
7.32017
7.44153
7.49742
7.52685
7.54881
7.57125
7.59666
7.62485
7.65445
7.68359
7.7103
7.7326
7.74859
7.75694
</DataArray>
<DataArray Name="hu" type="Float32" format="ascii">
0.185662
0.569006
0.987489
1.46225
2.01192
2.65164
3.39254
4.24144
5.201
6.27035
7.44567
8.72057
10.0869
11.5355
13.0558
14.637
16.2669
17.9329
19.6207
21.3146
22.997
24.6483
26.2459
27.7645
29.1757
30.4497
31.557
32.473
33.1836
33.6897
34.0077
34.1622
34.1654
33.9758
33.416
32.0235
28.9303
23.2898
15.7046
8.58178
3.74736
1.14436
-0.0755888
-0.606973
-0.834548
-0.940031
-1.00214
-1.05245
-1.10213
-1.15395
-1.20747
-1.26122
-1.31351
-1.36281
-1.40788
-1.44785
-1.48216
-1.51061
-1.53327
-1.55047
-1.56268
-1.57051
-1.57458
-1.57554
-1.57404
-1.57062
-1.56574
-1.55981
-1.55314
-1.54595
-1.53844
-1.53081
-1.5233
-1.51649
-1.51169
-1.51222
-1.52636
-1.57425
-1.70402
-2.02696
-2.78675
-4.45635
-7.71803
-12.8994
-18.9368
-23.762
-26.3156
-26.9707
-26.4542
-25.2597
-23.6439
-21.7358
-19.6065
-17.3018
-14.8561
-12.298
-9.65217
-6.94092
-4.18483
-1.39905
</DataArray>
<DataArray Name="B" type="Float32" format="ascii">
-20.8
-20.6
-20.4
-20.2
-20
-19.8
-19.6
-19.4
-19.2
-19
-18.8
-18.6
-18.4
-18.2
-18
-17.8
-17.6
-17.4
-17.2
-17
-16.8
-16.6
-16.4
-16.2
-16
-15.8
-15.6
-15.4
-15.2
-15
-14.8
-14.6
-14.4
-14.2
-14
-13.8
-13.6
-13.4
-13.2
-13
-12.8
-12.6
-12.4
-12.2
-12
-11.8
-11.6
-11.4
-11.2
-11
-10.8
-10.6
-10.4
-10.2
-10
-9.8
-9.6
-9.4
-9.2
-9
-8.8
-8.6
-8.4
-8.2
-8
-7.8
-7.6
-7.4
-7.2
-7
-6.8
-6.6
-6.4
-6.2
-6
-5.8
-5.6
-5.4
-5.2
-5
-4.8
-4.6
-4.4
-4.2
-4
-3.8
-3.6
-3.4
-3.2
-3
-2.8
-2.6
-2.4
-2.2
-2
-1.8
-1.6
-1.4
-1.2
-1
</DataArray>
</CellData>
</Piece>
</RectilinearGrid>
</VTKFile>
