<?xml version="1.0"?>
<VTKFile type="RectilinearGrid">
<RectilinearGrid WholeExtent="0 100 0 0 0 0">
<Piece Extent="0 100 0 0 0 0">
<Coordinates>
<DataArray type="Float32" format="ascii">
0
10
20
30
40
50
60
70
80
90
100
110
120
130
140
150
160
170
180
190
200
210
220
230
240
250
260
270
280
290
300
310
320
330
340
350
360
370
380
390
400
410
420
430
440
450
460
470
480
490
500
510
520
530
540
550
560
570
580
590
600
610
620
630
640
650
660
670
680
690
700
710
720
730
740
750
760
770
780
790
800
810
820
830
840
850
860
870
880
890
900
910
920
930
940
950
960
970
980
990
1000
</DataArray>
<DataArray type="Float32" format="ascii">
0
</DataArray>
<DataArray type="Float32" format="ascii">
0
</DataArray>
</Coordinates>
<CellData>
<DataArray Name="h" type="Float32" format="ascii">
6.75685
6.88644
7.03017
7.11989
7.16363
7.18405
7.19417
7.1995
7.20227
7.20331
7.20255
7.19882
7.18947
7.17043
7.13692
7.08484
7.01192
6.91824
6.80575
6.67761
6.53746
6.38899
6.23573
6.08099
5.9279
5.77944
5.63845
5.5076
5.38931
5.28555
5.19768
5.1262
5.07067
5.02972
5.00119
4.98253
4.97113
4.96467
4.9613
4.95971
4.95906
4.95884
4.95879
4.95879
4.95879
4.95877
4.95872
4.95864
4.95853
4.95839
4.95823
4.95804
4.95782
4.95759
4.95735
4.95712
4.95698
4.95705
4.95762
4.95923
4.96291
4.97048
4.98479
5.0098
5.05023
5.11076
5.19496
5.30447
5.43875
5.59532
5.77037
5.95941
6.15773
6.36063
6.5635
6.76174
6.95064
7.12535
7.28105
7.41341
7.51937
7.59806
7.65121
7.68244
7.69489
7.6865
7.64181
7.51814
7.23512
6.72274
6.07622
5.55235
5.26573
5.1448
5.10067
5.08591
5.08131
5.07996
5.07959
5.0795
</DataArray>
<DataArray Name="hu" type="Float32" format="ascii">
-7.38732
-20.3532
-29.0981
-33.7435
-35.8056
-36.5954
-36.8352
-36.8572
-36.8003
-36.7153
-36.6096
-36.4622
-36.2245
-35.8247
-35.1807
-34.2248
-32.9235
-31.2844
-29.349
-27.1782
-24.8399
-22.4006
-19.9215
-17.4581
-15.0598
-12.7707
-10.6306
-8.67439
-6.9311
-5.42258
-4.16104
-3.14693
-2.36788
-1.7994
-1.40769
-1.15435
-1.00157
-0.916444
-0.873339
-0.854266
-0.847781
-0.847282
-0.849279
-0.852011
-0.854743
-0.857237
-0.859432
-0.861397
-0.863173
-0.864805
-0.866311
-0.8677
-0.868977
-0.870125
-0.871032
-0.871391
-0.87046
-0.866647
-0.856737
-0.83442
-0.787925
-0.696826
-0.529177
-0.240861
0.220537
0.907035
1.85946
3.09882
4.62311
6.40958
8.41997
10.6063
12.9149
15.2891
17.67
19.996
22.2034
24.2268
26.0023
27.475
28.6087
29.3973
29.8693
30.0758
30.057
29.7786
29.0239
27.2236
23.3972
16.9855
9.65533
4.29163
1.59688
0.52498
0.149957
0.0306458
-0.00245773
-0.00841123
-0.0064114
-0.00227678
</DataArray>
<DataArray Name="B" type="Float32" format="ascii">
-20.8
-20.6
-20.4
-20.2
-20
-19.8
-19.6
-19.4
-19.2
-19
-18.8
-18.6
-18.4
-18.2
-18
-17.8
-17.6
-17.4
-17.2
-17
-16.8
-16.6
-16.4
-16.2
-16
-15.8
-15.6
-15.4
-15.2
-15
-14.8
-14.6
-14.4
-14.2
-14
-13.8
-13.6
-13.4
-13.2
-13
-12.8
-12.6
-12.4
-12.2
-12
-11.8
-11.6
-11.4
-11.2
-11
-10.8
-10.6
-10.4
-10.2
-10
-9.8
-9.6
-9.4
-9.2
-9
-8.8
-8.6
-8.4
-8.2
-8
-7.8
-7.6
-7.4
-7.2
-7
-6.8
-6.6
-6.4
-6.2
-6
-5.8
-5.6
-5.4
-5.2
-5
-4.8
-4.6
-4.4
-4.2
-4
-3.8
-3.6
-3.4
-3.2
-3
-2.8
-2.6
-2.4
-2.2
-2
-1.8
-1.6
-1.4
-1.2
-1
</DataArray>
</CellData>
</Piece>
</RectilinearGrid>
</VTKFile>
