<?xml version="1.0"?>
<VTKFile type="RectilinearGrid">
<RectilinearGrid WholeExtent="0 100 0 0 0 0">
<Piece Extent="0 100 0 0 0 0">
<Coordinates>
<DataArray type="Float32" format="ascii">
0
10
20
30
40
50
60
70
80
90
100
110
120
130
140
150
160
170
180
190
200
210
220
230
240
250
260
270
280
290
300
310
320
330
340
350
360
370
380
390
400
410
420
430
440
450
460
470
480
490
500
510
520
530
540
550
560
570
580
590
600
610
620
630
640
650
660
670
680
690
700
710
720
730
740
750
760
770
780
790
800
810
820
830
840
850
860
870
880
890
900
910
920
930
940
950
960
970
980
990
1000
</DataArray>
<DataArray type="Float32" format="ascii">
0
</DataArray>
<DataArray type="Float32" format="ascii">
0
</DataArray>
</Coordinates>
<CellData>
<DataArray Name="h" type="Float32" format="ascii">
6.22432
6.22493
6.22622
6.22823
6.23098
6.23449
6.23876
6.24382
6.24968
6.25636
6.26386
6.27222
6.28144
6.29154
6.30253
6.31445
6.32728
6.34106
6.3558
6.37148
6.38814
6.40576
6.42439
6.44403
6.46469
6.48636
6.50903
6.53266
6.55718
6.58248
6.60839
6.63461
6.66069
6.68565
6.70741
6.71927
6.69823
6.57664
6.25422
5.78164
5.39117
5.17583
5.076
5.03024
5.00835
4.99746
4.9919
4.98899
4.98745
4.98663
4.9862
4.98607
4.98631
4.98732
4.99008
4.99691
5.01283
5.04821
5.12281
5.26814
5.51721
5.86672
6.2398
6.53031
6.69472
6.75859
6.76326
6.73751
6.69685
6.64889
6.5973
6.54387
6.48949
6.43462
6.37945
6.32408
6.26852
6.21275
6.15674
6.10048
6.04395
5.98714
5.93004
5.87265
5.81498
5.75704
5.69886
5.64053
5.58219
5.52407
5.46653
5.41011
5.35551
5.30365
5.25561
5.21259
5.17585
5.14661
5.12601
5.11517
</DataArray>
<DataArray Name="hu" type="Float32" format="ascii">
0.417072
1.25148
2.08607
2.92006
3.7532
4.58497
5.41512
6.24334
7.06918
7.89242
8.71265
9.52963
10.3428
11.1521
11.9568
12.7568
13.5514
14.3404
15.1233
15.8998
16.6694
17.4314
18.1851
18.9298
19.6646
20.3888
21.1015
21.8018
22.4883
23.1594
23.812
24.4425
25.0431
25.6012
26.0834
26.3883
26.1583
24.3597
19.5471
12.6993
7.25636
4.36219
3.06503
2.49208
2.22994
2.10585
2.04498
2.01304
1.99366
1.97882
1.96419
1.94676
1.92308
1.88694
1.82537
1.71034
1.48223
1.0187
0.0866861
-1.69472
-4.75508
-9.13189
-13.9381
-17.7936
-20.0386
-20.9507
-21.0679
-20.7778
-20.2896
-19.7048
-19.0713
-18.4116
-17.737
-17.0532
-16.3637
-15.6712
-14.9775
-14.2843
-13.5929
-12.9045
-12.2199
-11.5401
-10.8659
-10.1982
-9.53786
-8.88574
-8.24265
-7.60927
-6.98599
-6.37266
-5.7685
-5.17187
-4.58029
-3.99051
-3.39883
-2.80157
-2.19578
-1.57987
-0.954154
-0.319528
</DataArray>
<DataArray Name="B" type="Float32" format="ascii">
-20.8
-20.6
-20.4
-20.2
-20
-19.8
-19.6
-19.4
-19.2
-19
-18.8
-18.6
-18.4
-18.2
-18
-17.8
-17.6
-17.4
-17.2
-17
-16.8
-16.6
-16.4
-16.2
-16
-15.8
-15.6
-15.4
-15.2
-15
-14.8
-14.6
-14.4
-14.2
-14
-13.8
-13.6
-13.4
-13.2
-13
-12.8
-12.6
-12.4
-12.2
-12
-11.8
-11.6
-11.4
-11.2
-11
-10.8
-10.6
-10.4
-10.2
-10
-9.8
-9.6
-9.4
-9.2
-9
-8.8
-8.6
-8.4
-8.2
-8
-7.8
-7.6
-7.4
-7.2
-7
-6.8
-6.6
-6.4
-6.2
-6
-5.8
-5.6
-5.4
-5.2
-5
-4.8
-4.6
-4.4
-4.2
-4
-3.8
-3.6
-3.4
-3.2
-3
-2.8
-2.6
-2.4
-2.2
-2
-1.8
-1.6
-1.4
-1.2
-1
</DataArray>
</CellData>
</Piece>
</RectilinearGrid>
</VTKFile>
