<?xml version="1.0"?>
<VTKFile type="RectilinearGrid">
<RectilinearGrid WholeExtent="0 100 0 0 0 0">
<Piece Extent="0 100 0 0 0 0">
<Coordinates>
<DataArray type="Float32" format="ascii">
0
10
20
30
40
50
60
70
80
90
100
110
120
130
140
150
160
170
180
190
200
210
220
230
240
250
260
270
280
290
300
310
320
330
340
350
360
370
380
390
400
410
420
430
440
450
460
470
480
490
500
510
520
530
540
550
560
570
580
590
600
610
620
630
640
650
660
670
680
690
700
710
720
730
740
750
760
770
780
790
800
810
820
830
840
850
860
870
880
890
900
910
920
930
940
950
960
970
980
990
1000
</DataArray>
<DataArray type="Float32" format="ascii">
0
</DataArray>
<DataArray type="Float32" format="ascii">
0
</DataArray>
</Coordinates>
<CellData>
<DataArray Name="h" type="Float32" format="ascii">
5.36989
5.37076
5.37253
5.37523
5.37887
5.38348
5.38906
5.39562
5.40316
5.41168
5.42118
5.43167
5.4431
5.45551
5.46885
5.4831
5.49825
5.51427
5.53114
5.54884
5.56736
5.58666
5.60672
5.62752
5.64903
5.67125
5.69414
5.71769
5.74186
5.76662
5.79195
5.81782
5.84422
5.87114
5.89861
5.92661
5.95516
5.98425
6.01388
6.04407
6.0748
6.10606
6.13783
6.1701
6.20285
6.2361
6.26984
6.3041
6.33885
6.3741
6.40977
6.44586
6.48223
6.5188
6.55504
6.58925
6.61425
6.60225
6.47402
6.13159
5.67795
5.37706
5.30161
5.38651
5.57334
5.81183
6.04241
6.2173
6.32395
6.37626
6.39369
6.39101
6.37733
6.35794
6.33581
6.31266
6.28948
6.26688
6.24521
6.22471
6.20553
6.18777
6.17151
6.15678
6.14357
6.13186
6.12159
6.11268
6.10505
6.0986
6.09325
6.08889
6.08545
6.08281
6.08087
6.0795
6.07856
6.07792
6.07742
6.07708
</DataArray>
<DataArray Name="hu" type="Float32" format="ascii">
0.179888
0.539707
0.899044
1.2575
1.61475
1.97083
2.32539
2.67848
3.02969
3.37902
3.7266
4.07222
4.41585
4.75782
5.09826
5.43733
5.77538
6.11222
6.44809
6.7829
7.11661
7.4493
7.78115
8.11252
8.44373
8.77531
9.10747
9.44073
9.77522
10.1115
10.4499
10.7908
11.1339
11.4792
11.8265
12.1756
12.5263
12.8785
13.2321
13.587
13.9432
14.3005
14.659
15.0189
15.3801
15.7423
16.1053
16.4682
16.8311
17.1931
17.5544
17.914
18.2712
18.6226
18.961
19.2567
19.3962
18.9673
16.8437
11.7431
5.13123
0.108845
-3.02289
-5.55157
-8.32596
-11.4155
-14.327
-16.5167
-17.8191
-18.4029
-18.5175
-18.3544
-18.0317
-17.6158
-17.1432
-16.6339
-16.0986
-15.5434
-14.9715
-14.3846
-13.7836
-13.169
-12.5411
-11.9001
-11.2463
-10.5804
-9.9028
-9.21438
-8.51587
-7.80802
-7.09155
-6.36714
-5.63551
-4.89741
-4.15368
-3.40518
-2.65285
-1.89762
-1.14041
-0.380722
</DataArray>
<DataArray Name="B" type="Float32" format="ascii">
-20.8
-20.6
-20.4
-20.2
-20
-19.8
-19.6
-19.4
-19.2
-19
-18.8
-18.6
-18.4
-18.2
-18
-17.8
-17.6
-17.4
-17.2
-17
-16.8
-16.6
-16.4
-16.2
-16
-15.8
-15.6
-15.4
-15.2
-15
-14.8
-14.6
-14.4
-14.2
-14
-13.8
-13.6
-13.4
-13.2
-13
-12.8
-12.6
-12.4
-12.2
-12
-11.8
-11.6
-11.4
-11.2
-11
-10.8
-10.6
-10.4
-10.2
-10
-9.8
-9.6
-9.4
-9.2
-9
-8.8
-8.6
-8.4
-8.2
-8
-7.8
-7.6
-7.4
-7.2
-7
-6.8
-6.6
-6.4
-6.2
-6
-5.8
-5.6
-5.4
-5.2
-5
-4.8
-4.6
-4.4
-4.2
-4
-3.8
-3.6
-3.4
-3.2
-3
-2.8
-2.6
-2.4
-2.2
-2
-1.8
-1.6
-1.4
-1.2
-1
</DataArray>
</CellData>
</Piece>
</RectilinearGrid>
</VTKFile>
