<?xml version="1.0"?>
<VTKFile type="RectilinearGrid">
<RectilinearGrid WholeExtent="0 100 0 0 0 0">
<Piece Extent="0 100 0 0 0 0">
<Coordinates>
<DataArray type="Float32" format="ascii">
0
10
20
30
40
50
60
70
80
90
100
110
120
130
140
150
160
170
180
190
200
210
220
230
240
250
260
270
280
290
300
310
320
330
340
350
360
370
380
390
400
410
420
430
440
450
460
470
480
490
500
510
520
530
540
550
560
570
580
590
600
610
620
630
640
650
660
670
680
690
700
710
720
730
740
750
760
770
780
790
800
810
820
830
840
850
860
870
880
890
900
910
920
930
940
950
960
970
980
990
1000
</DataArray>
<DataArray type="Float32" format="ascii">
0
</DataArray>
<DataArray type="Float32" format="ascii">
0
</DataArray>
</Coordinates>
<CellData>
<DataArray Name="h" type="Float32" format="ascii">
5
5
5
4.99998
4.99992
4.99975
4.99934
4.99851
4.99709
4.9951
4.99316
4.99355
5.00249
5.0345
5.11845
5.30028
5.62574
6.08412
6.56229
6.92285
7.12739
7.22206
7.26042
7.2745
7.27923
7.28063
7.28093
7.28074
7.27993
7.27722
7.26923
7.24944
7.20864
7.13748
7.03006
6.88596
6.70974
6.50915
6.29334
6.07183
5.85397
5.64873
5.4643
5.30739
5.18232
5.09012
5.02824
4.99126
4.97256
4.96636
4.96943
4.98232
5.00996
5.06099
5.14547
5.27121
5.44074
5.65033
5.89107
6.15093
6.41647
6.67395
6.91
7.11253
7.27236
7.38562
7.45569
7.49248
7.50849
7.51417
7.51549
7.51419
7.50786
7.48719
7.42795
7.27807
6.95889
6.43677
5.8451
5.39711
5.15602
5.0543
5.01896
5.01021
5.01169
5.0178
5.02671
5.03743
5.04885
5.05971
5.06889
5.07575
5.08025
5.08282
5.08407
5.08457
5.08473
5.08475
5.08474
5.08473
</DataArray>
<DataArray Name="hu" type="Float32" format="ascii">
1.49893e-05
2.67577e-05
9.45128e-05
0.000340966
0.00126665
0.00396423
0.0103251
0.023156
0.0449204
0.0753154
0.104719
0.0986395
-0.0367807
-0.519555
-1.78433
-4.53607
-9.52177
-16.6864
-24.3372
-30.2147
-33.567
-35.0898
-35.6634
-35.8259
-35.8296
-35.7771
-35.706
-35.6276
-35.539
-35.4192
-35.2125
-34.8137
-34.0763
-32.8562
-31.0709
-28.7311
-25.9302
-22.8097
-19.5269
-16.2345
-13.0719
-10.1614
-7.6039
-5.47296
-3.80553
-2.59416
-1.78625
-1.29472
-1.0177
-0.857514
-0.727413
-0.54223
-0.201556
0.417523
1.44469
2.98209
5.07221
7.68619
10.733
14.0774
17.5555
20.9853
24.1748
26.9375
29.1212
30.6505
31.5609
31.9902
32.1184
32.0964
32.0114
31.8889
31.6946
31.2953
30.3491
28.1476
23.7166
16.9256
9.80294
4.79847
2.25338
1.20642
0.824737
0.6836
0.608921
0.538728
0.455541
0.359759
0.259703
0.166432
0.0895308
0.0341082
-4.79892e-05
-0.0170935
-0.0226826
-0.0218701
-0.0180925
-0.0132006
-0.00797541
-0.00266478
</DataArray>
<DataArray Name="B" type="Float32" format="ascii">
-20.8
-20.6
-20.4
-20.2
-20
-19.8
-19.6
-19.4
-19.2
-19
-18.8
-18.6
-18.4
-18.2
-18
-17.8
-17.6
-17.4
-17.2
-17
-16.8
-16.6
-16.4
-16.2
-16
-15.8
-15.6
-15.4
-15.2
-15
-14.8
-14.6
-14.4
-14.2
-14
-13.8
-13.6
-13.4
-13.2
-13
-12.8
-12.6
-12.4
-12.2
-12
-11.8
-11.6
-11.4
-11.2
-11
-10.8
-10.6
-10.4
-10.2
-10
-9.8
-9.6
-9.4
-9.2
-9
-8.8
-8.6
-8.4
-8.2
-8
-7.8
-7.6
-7.4
-7.2
-7
-6.8
-6.6
-6.4
-6.2
-6
-5.8
-5.6
-5.4
-5.2
-5
-4.8
-4.6
-4.4
-4.2
-4
-3.8
-3.6
-3.4
-3.2
-3
-2.8
-2.6
-2.4
-2.2
-2
-1.8
-1.6
-1.4
-1.2
-1
</DataArray>
</CellData>
</Piece>
</RectilinearGrid>
</VTKFile>
