<?xml version="1.0"?>
<VTKFile type="RectilinearGrid">
<RectilinearGrid WholeExtent="0 100 0 0 0 0">
<Piece Extent="0 100 0 0 0 0">
<Coordinates>
<DataArray type="Float32" format="ascii">
0
10
20
30
40
50
60
70
80
90
100
110
120
130
140
150
160
170
180
190
200
210
220
230
240
250
260
270
280
290
300
310
320
330
340
350
360
370
380
390
400
410
420
430
440
450
460
470
480
490
500
510
520
530
540
550
560
570
580
590
600
610
620
630
640
650
660
670
680
690
700
710
720
730
740
750
760
770
780
790
800
810
820
830
840
850
860
870
880
890
900
910
920
930
940
950
960
970
980
990
1000
</DataArray>
<DataArray type="Float32" format="ascii">
0
</DataArray>
<DataArray type="Float32" format="ascii">
0
</DataArray>
</Coordinates>
<CellData>
<DataArray Name="h" type="Float32" format="ascii">
6.99898
6.99941
7.00032
7.00174
7.00368
7.00613
7.00908
7.01254
7.01649
7.02093
7.02584
7.0312
7.037
7.0432
7.04974
7.05655
7.06354
7.07056
7.07737
7.08353
7.08831
7.09034
7.08643
7.06712
6.99863
6.79361
6.38185
5.91212
5.58367
5.40138
5.3015
5.24239
5.20364
5.17547
5.15306
5.13401
5.11709
5.10168
5.08746
5.07425
5.06197
5.05056
5.03996
5.03014
5.02104
5.01261
5.00478
4.99748
4.99064
4.9842
4.97808
4.97222
4.96657
4.96109
4.95576
4.95058
4.94556
4.94074
4.93615
4.93185
4.92791
4.92441
4.92149
4.91944
4.91893
4.92155
4.93098
4.95565
5.01339
5.13721
5.37155
5.73548
6.16206
6.51958
6.73255
6.82059
6.83418
6.81036
6.76872
6.7184
6.66355
6.60609
6.547
6.48693
6.4264
6.36596
6.30628
6.24812
6.19237
6.13996
6.09181
6.04868
6.01111
5.9794
5.95351
5.93317
5.91789
5.90708
5.90005
5.8965
</DataArray>
<DataArray Name="hu" type="Float32" format="ascii">
0.511631
1.53554
2.55914
3.58228
4.60408
5.6247
6.64321
7.65974
8.67334
9.68393
10.6905
11.6929
12.69
13.6811
14.6655
15.6412
16.6061
17.5564
18.4879
19.3921
20.2573
21.0593
21.7477
22.1663
21.7766
19.1991
13.4528
7.00392
2.80911
0.788794
-0.0533374
-0.33425
-0.350057
-0.241147
-0.0761387
0.11047
0.301018
0.486347
0.661691
0.824492
0.973391
1.10771
1.22708
1.33139
1.42064
1.49491
1.55447
1.59964
1.63086
1.6487
1.65388
1.64723
1.6298
1.60273
1.56738
1.5252
1.47777
1.42672
1.37364
1.31997
1.26686
1.21496
1.16392
1.11133
1.05022
0.963372
0.810236
0.499276
-0.164029
-1.54575
-4.16958
-8.34448
-13.4139
-17.8067
-20.4697
-21.547
-21.6568
-21.2807
-20.6785
-19.9724
-19.2178
-18.4398
-17.6495
-16.8511
-16.0455
-15.2308
-14.4037
-13.5591
-12.6909
-11.7927
-10.8582
-9.88233
-8.86185
-7.79564
-6.68488
-5.53289
-4.34475
-3.12698
-1.88719
-0.631426
</DataArray>
<DataArray Name="B" type="Float32" format="ascii">
-20.8
-20.6
-20.4
-20.2
-20
-19.8
-19.6
-19.4
-19.2
-19
-18.8
-18.6
-18.4
-18.2
-18
-17.8
-17.6
-17.4
-17.2
-17
-16.8
-16.6
-16.4
-16.2
-16
-15.8
-15.6
-15.4
-15.2
-15
-14.8
-14.6
-14.4
-14.2
-14
-13.8
-13.6
-13.4
-13.2
-13
-12.8
-12.6
-12.4
-12.2
-12
-11.8
-11.6
-11.4
-11.2
-11
-10.8
-10.6
-10.4
-10.2
-10
-9.8
-9.6
-9.4
-9.2
-9
-8.8
-8.6
-8.4
-8.2
-8
-7.8
-7.6
-7.4
-7.2
-7
-6.8
-6.6
-6.4
-6.2
-6
-5.8
-5.6
-5.4
-5.2
-5
-4.8
-4.6
-4.4
-4.2
-4
-3.8
-3.6
-3.4
-3.2
-3
-2.8
-2.6
-2.4
-2.2
-2
-1.8
-1.6
-1.4
-1.2
-1
</DataArray>
</CellData>
</Piece>
</RectilinearGrid>
</VTKFile>
