<?xml version="1.0"?>
<VTKFile type="RectilinearGrid">
<RectilinearGrid WholeExtent="0 100 0 0 0 0">
<Piece Extent="0 100 0 0 0 0">
<Coordinates>
<DataArray type="Float32" format="ascii">
0
10
20
30
40
50
60
70
80
90
100
110
120
130
140
150
160
170
180
190
200
210
220
230
240
250
260
270
280
290
300
310
320
330
340
350
360
370
380
390
400
410
420
430
440
450
460
470
480
490
500
510
520
530
540
550
560
570
580
590
600
610
620
630
640
650
660
670
680
690
700
710
720
730
740
750
760
770
780
790
800
810
820
830
840
850
860
870
880
890
900
910
920
930
940
950
960
970
980
990
1000
</DataArray>
<DataArray type="Float32" format="ascii">
0
</DataArray>
<DataArray type="Float32" format="ascii">
0
</DataArray>
</Coordinates>
<CellData>
<DataArray Name="h" type="Float32" format="ascii">
5
5
5
5
5
5
5
5
5
5
5
5
5
5
5
5
5
5
5
5
5
5
4.99998
4.99983
4.99925
4.99757
4.99413
4.98895
4.98337
4.98056
4.99021
5.0453
5.22443
5.62511
6.22687
6.81028
7.17425
7.32638
7.37216
7.38389
7.39209
7.43326
7.57998
7.89884
8.37726
8.91762
9.39712
9.73162
9.90781
9.96537
9.93894
9.81724
9.5617
9.1587
8.65235
8.13871
7.73014
7.49532
7.41157
7.39739
7.38446
7.31091
7.06789
6.55675
5.88971
5.36514
5.10771
5.02303
5.00349
5.00035
5.00002
5
5
5
5
5
5
5
5
5
5
5
5
5
5
5
5
5
5
5
5
5.00004
5.00024
5.0012
5.00454
5.01327
5.03008
5.05329
5.07501
5.08734
</DataArray>
<DataArray Name="hu" type="Float32" format="ascii">
-5.57522e-06
-2.71417e-07
2.37674e-06
-5.90592e-06
-2.34499e-06
4.01705e-06
7.03492e-06
1.47592e-05
1.92786e-05
1.1426e-05
-5.28983e-06
-2.2442e-05
-1.79924e-05
-8.611e-07
4.81391e-06
4.23832e-06
1.03166e-05
1.49757e-05
9.41536e-06
2.79525e-07
-1.08344e-05
2.37096e-05
0.000358484
0.00242013
0.0107977
0.0346197
0.0834183
0.156356
0.234272
0.273019
0.138275
-0.626252
-3.12482
-8.81969
-17.6413
-26.4654
-32.0372
-34.2462
-34.7318
-34.7086
-34.5574
-33.9748
-32.069
-27.9728
-21.737
-14.5006
-7.88435
-3.1506
-0.571745
0.576534
1.46984
3.25932
6.7654
12.0998
18.5065
24.677
29.3383
31.88
32.6922
32.6943
32.3586
31.1369
27.4827
20.2443
11.4184
4.93368
1.91744
0.956573
0.738566
0.70388
0.700232
0.700007
0.700002
0.700002
0.7
0.7
0.700001
0.7
0.699999
0.7
0.700001
0.699999
0.699997
0.7
0.700002
0.700002
0.7
0.699998
0.699999
0.699998
0.699967
0.699692
0.697975
0.69008
0.66292
0.593012
0.460138
0.279415
0.11364
0.0223965
</DataArray>
<DataArray Name="B" type="Float32" format="ascii">
-20.8
-20.6
-20.4
-20.2
-20
-19.8
-19.6
-19.4
-19.2
-19
-18.8
-18.6
-18.4
-18.2
-18
-17.8
-17.6
-17.4
-17.2
-17
-16.8
-16.6
-16.4
-16.2
-16
-15.8
-15.6
-15.4
-15.2
-15
-14.8
-14.6
-14.4
-14.2
-14
-13.8
-13.6
-13.4
-13.2
-13
-12.8
-12.6
-12.4
-12.2
-12
-11.8
-11.6
-11.4
-11.2
-11
-10.8
-10.6
-10.4
-10.2
-10
-9.8
-9.6
-9.4
-9.2
-9
-8.8
-8.6
-8.4
-8.2
-8
-7.8
-7.6
-7.4
-7.2
-7
-6.8
-6.6
-6.4
-6.2
-6
-5.8
-5.6
-5.4
-5.2
-5
-4.8
-4.6
-4.4
-4.2
-4
-3.8
-3.6
-3.4
-3.2
-3
-2.8
-2.6
-2.4
-2.2
-2
-1.8
-1.6
-1.4
-1.2
-1
</DataArray>
</CellData>
</Piece>
</RectilinearGrid>
</VTKFile>
