<?xml version="1.0"?>
<VTKFile type="RectilinearGrid">
<RectilinearGrid WholeExtent="0 100 0 0 0 0">
<Piece Extent="0 100 0 0 0 0">
<Coordinates>
<DataArray type="Float32" format="ascii">
0
10
20
30
40
50
60
70
80
90
100
110
120
130
140
150
160
170
180
190
200
210
220
230
240
250
260
270
280
290
300
310
320
330
340
350
360
370
380
390
400
410
420
430
440
450
460
470
480
490
500
510
520
530
540
550
560
570
580
590
600
610
620
630
640
650
660
670
680
690
700
710
720
730
740
750
760
770
780
790
800
810
820
830
840
850
860
870
880
890
900
910
920
930
940
950
960
970
980
990
1000
</DataArray>
<DataArray type="Float32" format="ascii">
0
</DataArray>
<DataArray type="Float32" format="ascii">
0
</DataArray>
</Coordinates>
<CellData>
<DataArray Name="h" type="Float32" format="ascii">
5.10948
5.11037
5.1123
5.11555
5.12053
5.12781
5.13803
5.15194
5.17031
5.19394
5.22353
5.25969
5.30286
5.3533
5.41108
5.47607
5.54797
5.62634
5.71065
5.80029
5.89461
5.99292
6.09449
6.19856
6.30434
6.41096
6.51749
6.62293
6.72616
6.82593
6.92082
7.00927
7.08964
7.16036
7.22015
7.2683
7.30484
7.33034
7.34513
7.34704
7.32655
7.25738
7.08609
6.74808
6.25214
5.74355
5.37403
5.16811
5.07214
5.03291
5.01911
5.01565
5.01592
5.01724
5.0186
5.01969
5.02044
5.02087
5.02105
5.02101
5.02081
5.02047
5.02002
5.0195
5.01892
5.01829
5.01765
5.01702
5.01647
5.01616
5.0165
5.01844
5.02422
5.03896
5.07408
5.15323
5.31871
5.6225
6.07252
6.56625
6.94995
7.16198
7.24085
7.2434
7.207
7.15115
7.08586
7.01698
6.94864
6.88426
6.82669
6.77798
6.73929
6.71074
6.69157
6.68028
6.67493
6.67339
6.67356
6.67397
</DataArray>
<DataArray Name="hu" type="Float32" format="ascii">
0.0113924
0.0372194
0.0723618
0.123872
0.199896
0.309726
0.46406
0.674578
0.953482
1.3127
1.76295
2.31312
2.96957
3.7358
4.61251
5.59775
6.68738
7.87531
9.15396
10.5146
11.9474
13.4422
14.988
16.5734
18.1865
19.8144
21.4426
23.0551
24.6332
26.1556
27.5986
28.9357
30.1394
31.1825
32.0425
32.7052
33.1688
33.4417
33.5295
33.3989
32.9009
31.6269
28.7687
23.4356
15.987
8.70034
3.59945
0.804201
-0.518872
-1.09961
-1.34758
-1.45545
-1.50624
-1.53368
-1.55075
-1.56214
-1.56954
-1.57368
-1.57502
-1.57403
-1.57114
-1.56676
-1.56127
-1.55495
-1.54806
-1.54079
-1.53338
-1.5262
-1.52001
-1.51663
-1.52034
-1.54128
-1.60303
-1.75941
-2.12977
-2.96437
-4.72626
-8.04341
-13.1648
-19.0648
-23.8479
-26.5418
-27.4997
-27.4291
-26.8204
-25.9251
-24.8576
-23.6655
-22.3642
-20.9543
-19.4306
-17.7885
-16.0266
-14.1489
-12.1641
-10.0852
-7.92755
-5.7084
-3.44545
-1.15266
</DataArray>
<DataArray Name="B" type="Float32" format="ascii">
-20.8
-20.6
-20.4
-20.2
-20
-19.8
-19.6
-19.4
-19.2
-19
-18.8
-18.6
-18.4
-18.2
-18
-17.8
-17.6
-17.4
-17.2
-17
-16.8
-16.6
-16.4
-16.2
-16
-15.8
-15.6
-15.4
-15.2
-15
-14.8
-14.6
-14.4
-14.2
-14
-13.8
-13.6
-13.4
-13.2
-13
-12.8
-12.6
-12.4
-12.2
-12
-11.8
-11.6
-11.4
-11.2
-11
-10.8
-10.6
-10.4
-10.2
-10
-9.8
-9.6
-9.4
-9.2
-9
-8.8
-8.6
-8.4
-8.2
-8
-7.8
-7.6
-7.4
-7.2
-7
-6.8
-6.6
-6.4
-6.2
-6
-5.8
-5.6
-5.4
-5.2
-5
-4.8
-4.6
-4.4
-4.2
-4
-3.8
-3.6
-3.4
-3.2
-3
-2.8
-2.6
-2.4
-2.2
-2
-1.8
-1.6
-1.4
-1.2
-1
</DataArray>
</CellData>
</Piece>
</RectilinearGrid>
</VTKFile>
