<?xml version="1.0"?>
<VTKFile type="RectilinearGrid">
<RectilinearGrid WholeExtent="0 100 0 0 0 0">
<Piece Extent="0 100 0 0 0 0">
<Coordinates>
<DataArray type="Float32" format="ascii">
0
10
20
30
40
50
60
70
80
90
100
110
120
130
140
150
160
170
180
190
200
210
220
230
240
250
260
270
280
290
300
310
320
330
340
350
360
370
380
390
400
410
420
430
440
450
460
470
480
490
500
510
520
530
540
550
560
570
580
590
600
610
620
630
640
650
660
670
680
690
700
710
720
730
740
750
760
770
780
790
800
810
820
830
840
850
860
870
880
890
900
910
920
930
940
950
960
970
980
990
1000
</DataArray>
<DataArray type="Float32" format="ascii">
0
</DataArray>
<DataArray type="Float32" format="ascii">
0
</DataArray>
</Coordinates>
<CellData>
<DataArray Name="h" type="Float32" format="ascii">
5.18572
5.28611
5.52895
5.93237
6.30929
6.46729
6.49654
6.49018
6.47308
6.4511
6.42653
6.40038
6.37336
6.3458
6.31802
6.29015
6.26236
6.23472
6.20733
6.18024
6.15353
6.12724
6.10145
6.0762
6.05156
6.02757
6.00429
5.98175
5.96001
5.93911
5.91908
5.89995
5.88174
5.86449
5.84823
5.83298
5.81876
5.8056
5.79351
5.78247
5.7725
5.76357
5.75568
5.74886
5.74313
5.73851
5.73501
5.73267
5.73148
5.73147
5.73266
5.73507
5.73874
5.7437
5.74998
5.75762
5.76665
5.77713
5.7891
5.80261
5.81771
5.83446
5.8529
5.87311
5.89511
5.91895
5.94464
5.97219
6.00158
6.03278
6.06575
6.10042
6.13673
6.17458
6.21386
6.25446
6.29624
6.33907
6.3828
6.42732
6.47247
6.51806
6.56371
6.6084
6.64929
6.67853
6.67636
6.60025
6.38535
6.00311
5.56233
5.23492
5.06653
5.00012
4.97923
4.97502
4.97609
4.97838
4.98043
4.98161
</DataArray>
<DataArray Name="hu" type="Float32" format="ascii">
-1.10697
-3.86045
-8.38048
-15.306
-21.7542
-24.4878
-24.9901
-24.8642
-24.5418
-24.1323
-23.6744
-23.1891
-22.6867
-22.1742
-21.6543
-21.1299
-20.601
-20.0689
-19.533
-18.9934
-18.4497
-17.9019
-17.3496
-16.7928
-16.2313
-15.6649
-15.0934
-14.5165
-13.9338
-13.3448
-12.7493
-12.147
-11.5376
-10.9213
-10.298
-9.66797
-9.0315
-8.38896
-7.7408
-7.08754
-6.42965
-5.76754
-5.10156
-4.43188
-3.75881
-3.08277
-2.40443
-1.72461
-1.04416
-0.363906
0.315506
0.993555
1.66976
2.34357
3.01431
3.68114
4.34301
4.99885
5.64764
6.28852
6.92085
7.54413
8.15798
8.762
9.35575
9.93883
10.5109
11.0718
11.6216
12.1606
12.6892
13.2084
13.7187
14.2213
14.7169
15.2064
15.6907
16.1705
16.6463
17.1186
17.5873
18.0514
18.5072
18.9427
19.3227
19.55
19.3812
18.307
15.6137
11.1844
6.4662
3.19104
1.55607
0.873327
0.589474
0.443904
0.339114
0.243253
0.147292
0.0494337
</DataArray>
<DataArray Name="B" type="Float32" format="ascii">
-20.8
-20.6
-20.4
-20.2
-20
-19.8
-19.6
-19.4
-19.2
-19
-18.8
-18.6
-18.4
-18.2
-18
-17.8
-17.6
-17.4
-17.2
-17
-16.8
-16.6
-16.4
-16.2
-16
-15.8
-15.6
-15.4
-15.2
-15
-14.8
-14.6
-14.4
-14.2
-14
-13.8
-13.6
-13.4
-13.2
-13
-12.8
-12.6
-12.4
-12.2
-12
-11.8
-11.6
-11.4
-11.2
-11
-10.8
-10.6
-10.4
-10.2
-10
-9.8
-9.6
-9.4
-9.2
-9
-8.8
-8.6
-8.4
-8.2
-8
-7.8
-7.6
-7.4
-7.2
-7
-6.8
-6.6
-6.4
-6.2
-6
-5.8
-5.6
-5.4
-5.2
-5
-4.8
-4.6
-4.4
-4.2
-4
-3.8
-3.6
-3.4
-3.2
-3
-2.8
-2.6
-2.4
-2.2
-2
-1.8
-1.6
-1.4
-1.2
-1
</DataArray>
</CellData>
</Piece>
</RectilinearGrid>
</VTKFile>
