<?xml version="1.0"?>
<VTKFile type="RectilinearGrid">
<RectilinearGrid WholeExtent="0 100 0 0 0 0">
<Piece Extent="0 100 0 0 0 0">
<Coordinates>
<DataArray type="Float32" format="ascii">
0
10
20
30
40
50
60
70
80
90
100
110
120
130
140
150
160
170
180
190
200
210
220
230
240
250
260
270
280
290
300
310
320
330
340
350
360
370
380
390
400
410
420
430
440
450
460
470
480
490
500
510
520
530
540
550
560
570
580
590
600
610
620
630
640
650
660
670
680
690
700
710
720
730
740
750
760
770
780
790
800
810
820
830
840
850
860
870
880
890
900
910
920
930
940
950
960
970
980
990
1000
</DataArray>
<DataArray type="Float32" format="ascii">
0
</DataArray>
<DataArray type="Float32" format="ascii">
0
</DataArray>
</Coordinates>
<CellData>
<DataArray Name="h" type="Float32" format="ascii">
7.59281
7.59271
7.5925
7.59211
7.59137
7.59
7.58744
7.5827
7.5732
7.54947
7.4703
7.22304
6.76544
6.32456
6.05896
5.92054
5.84218
5.79082
5.75219
5.71985
5.69074
5.66334
5.63692
5.61109
5.5857
5.56067
5.53599
5.51167
5.48775
5.46428
5.44131
5.41893
5.3972
5.3762
5.35601
5.33669
5.31832
5.30098
5.28472
5.26964
5.25579
5.24326
5.23211
5.22243
5.21431
5.20779
5.20296
5.19986
5.19856
5.19908
5.20147
5.20574
5.21192
5.22003
5.23006
5.24204
5.25596
5.27182
5.28958
5.30923
5.33069
5.35393
5.37887
5.40544
5.43357
5.46319
5.49423
5.52658
5.56019
5.59496
5.63083
5.66773
5.70563
5.74448
5.78427
5.82499
5.86662
5.90919
5.95268
5.99712
6.04252
6.0889
6.13626
6.18462
6.23394
6.2842
6.33534
6.38727
6.43989
6.49305
6.54655
6.60007
6.65308
6.70446
6.75198
6.79114
6.81401
6.80977
6.77375
6.72972
</DataArray>
<DataArray Name="hu" type="Float32" format="ascii">
0.449957
1.3471
2.24453
3.13505
4.01945
4.88819
5.73605
6.54197
7.26685
7.75079
7.32353
4.17375
-2.23657
-8.20048
-11.3717
-12.6013
-12.9352
-12.8735
-12.6294
-12.2985
-11.9261
-11.5347
-11.1356
-10.7343
-10.3338
-9.93519
-9.53904
-9.14538
-8.75396
-8.36442
-7.97634
-7.58925
-7.20278
-6.81661
-6.43041
-6.04387
-5.65674
-5.26879
-4.87977
-4.48948
-4.09777
-3.7045
-3.30963
-2.91318
-2.51527
-2.11614
-1.71605
-1.3153
-0.914274
-0.513352
-0.11302
0.286244
0.683968
1.07969
1.4731
1.86398
2.25229
2.63804
3.02137
3.40247
3.78153
4.15886
4.53492
4.91019
5.28527
5.66074
6.03717
6.41506
6.79478
7.17667
7.56101
7.948
8.3378
8.73052
9.12615
9.5246
9.92561
10.3288
10.7338
11.1401
11.5471
11.9544
12.3616
12.7684
13.1747
13.5804
13.9857
14.3907
14.7957
15.2007
15.6055
16.0085
16.4034
16.7724
17.0662
17.1581
16.7405
15.1469
11.2652
4.30049
</DataArray>
<DataArray Name="B" type="Float32" format="ascii">
-20.8
-20.6
-20.4
-20.2
-20
-19.8
-19.6
-19.4
-19.2
-19
-18.8
-18.6
-18.4
-18.2
-18
-17.8
-17.6
-17.4
-17.2
-17
-16.8
-16.6
-16.4
-16.2
-16
-15.8
-15.6
-15.4
-15.2
-15
-14.8
-14.6
-14.4
-14.2
-14
-13.8
-13.6
-13.4
-13.2
-13
-12.8
-12.6
-12.4
-12.2
-12
-11.8
-11.6
-11.4
-11.2
-11
-10.8
-10.6
-10.4
-10.2
-10
-9.8
-9.6
-9.4
-9.2
-9
-8.8
-8.6
-8.4
-8.2
-8
-7.8
-7.6
-7.4
-7.2
-7
-6.8
-6.6
-6.4
-6.2
-6
-5.8
-5.6
-5.4
-5.2
-5
-4.8
-4.6
-4.4
-4.2
-4
-3.8
-3.6
-3.4
-3.2
-3
-2.8
-2.6
-2.4
-2.2
-2
-1.8
-1.6
-1.4
-1.2
-1
</DataArray>
</CellData>
</Piece>
</RectilinearGrid>
</VTKFile>
