<?xml version="1.0"?>
<VTKFile type="RectilinearGrid">
<RectilinearGrid WholeExtent="0 100 0 0 0 0">
<Piece Extent="0 100 0 0 0 0">
<Coordinates>
<DataArray type="Float32" format="ascii">
0
10
20
30
40
50
60
70
80
90
100
110
120
130
140
150
160
170
180
190
200
210
220
230
240
250
260
270
280
290
300
310
320
330
340
350
360
370
380
390
400
410
420
430
440
450
460
470
480
490
500
510
520
530
540
550
560
570
580
590
600
610
620
630
640
650
660
670
680
690
700
710
720
730
740
750
760
770
780
790
800
810
820
830
840
850
860
870
880
890
900
910
920
930
940
950
960
970
980
990
1000
</DataArray>
<DataArray type="Float32" format="ascii">
0
</DataArray>
<DataArray type="Float32" format="ascii">
0
</DataArray>
</Coordinates>
<CellData>
<DataArray Name="h" type="Float32" format="ascii">
5.23492
5.23472
5.23432
5.23373
5.23292
5.23191
5.23071
5.22934
5.22787
5.22644
5.22529
5.22489
5.22614
5.23063
5.24128
5.26319
5.3052
5.3814
5.51124
5.71289
5.98464
6.28507
6.54689
6.72552
6.82163
6.85929
6.86186
6.84466
6.81641
6.78186
6.74361
6.70311
6.66118
6.61831
6.5748
6.53084
6.48654
6.44199
6.39725
6.35237
6.30738
6.26231
6.21721
6.17208
6.12697
6.0819
6.03689
5.99197
5.94718
5.90254
5.8581
5.81391
5.77004
5.72659
5.68372
5.64162
5.60061
5.56109
5.52357
5.48872
5.45729
5.43012
5.40807
5.39197
5.38253
5.3803
5.38566
5.39877
5.4196
5.44797
5.48358
5.52605
5.57494
5.62979
5.69013
5.75549
5.82543
5.89946
5.97714
6.05797
6.14145
6.22707
6.31429
6.40255
6.49124
6.57975
6.66744
6.75358
6.83727
6.91723
6.99123
7.05447
7.09534
7.08449
6.9528
6.58489
5.94692
5.30656
4.9365
4.80147
</DataArray>
<DataArray Name="hu" type="Float32" format="ascii">
-0.00540822
-0.0164998
-0.0282972
-0.0412362
-0.0558117
-0.0725526
-0.0921777
-0.115445
-0.143681
-0.179154
-0.225721
-0.29041
-0.38608
-0.536326
-0.783684
-1.20383
-1.92715
-3.16458
-5.2118
-8.35834
-12.6096
-17.3579
-21.5491
-24.4402
-26.0069
-26.6229
-26.6636
-26.3786
-25.9109
-25.3392
-24.707
-24.0388
-23.349
-22.6467
-21.9374
-21.2249
-20.5115
-19.7994
-19.0899
-18.3842
-17.6831
-16.9873
-16.2975
-15.6142
-14.9381
-14.2695
-13.6089
-12.9568
-12.3133
-11.6791
-11.0542
-10.4388
-9.83299
-9.23629
-8.64785
-8.06618
-7.48884
-6.91228
-6.33172
-5.74109
-5.13327
-4.50048
-3.83486
-3.12921
-2.37769
-1.5763
-0.72324
0.181048
1.1341
2.13179
3.16874
4.23884
5.33562
6.45265
7.58378
8.72334
9.86626
11.0081
12.1452
13.2745
14.3934
15.4996
16.5913
17.6666
18.7234
19.759
20.7701
21.7518
22.6964
23.5906
24.4073
25.0846
25.4691
25.1761
23.3375
18.6826
11.4711
5.09707
1.75152
0.397833
</DataArray>
<DataArray Name="B" type="Float32" format="ascii">
-20.8
-20.6
-20.4
-20.2
-20
-19.8
-19.6
-19.4
-19.2
-19
-18.8
-18.6
-18.4
-18.2
-18
-17.8
-17.6
-17.4
-17.2
-17
-16.8
-16.6
-16.4
-16.2
-16
-15.8
-15.6
-15.4
-15.2
-15
-14.8
-14.6
-14.4
-14.2
-14
-13.8
-13.6
-13.4
-13.2
-13
-12.8
-12.6
-12.4
-12.2
-12
-11.8
-11.6
-11.4
-11.2
-11
-10.8
-10.6
-10.4
-10.2
-10
-9.8
-9.6
-9.4
-9.2
-9
-8.8
-8.6
-8.4
-8.2
-8
-7.8
-7.6
-7.4
-7.2
-7
-6.8
-6.6
-6.4
-6.2
-6
-5.8
-5.6
-5.4
-5.2
-5
-4.8
-4.6
-4.4
-4.2
-4
-3.8
-3.6
-3.4
-3.2
-3
-2.8
-2.6
-2.4
-2.2
-2
-1.8
-1.6
-1.4
-1.2
-1
</DataArray>
</CellData>
</Piece>
</RectilinearGrid>
</VTKFile>
