<?xml version="1.0"?>
<VTKFile type="RectilinearGrid">
<RectilinearGrid WholeExtent="0 100 0 0 0 0">
<Piece Extent="0 100 0 0 0 0">
<Coordinates>
<DataArray type="Float32" format="ascii">
0
10
20
30
40
50
60
70
80
90
100
110
120
130
140
150
160
170
180
190
200
210
220
230
240
250
260
270
280
290
300
310
320
330
340
350
360
370
380
390
400
410
420
430
440
450
460
470
480
490
500
510
520
530
540
550
560
570
580
590
600
610
620
630
640
650
660
670
680
690
700
710
720
730
740
750
760
770
780
790
800
810
820
830
840
850
860
870
880
890
900
910
920
930
940
950
960
970
980
990
1000
</DataArray>
<DataArray type="Float32" format="ascii">
0
</DataArray>
<DataArray type="Float32" format="ascii">
0
</DataArray>
</Coordinates>
<CellData>
<DataArray Name="h" type="Float32" format="ascii">
5.96545
5.96553
5.96589
5.96621
5.96703
5.96758
5.9689
5.96978
5.97156
5.97291
5.97501
5.977
5.97939
5.98204
5.98473
5.98808
5.991
5.9951
5.99821
6.00304
6.00644
6.01184
6.01569
6.02164
6.026
6.03245
6.03755
6.04457
6.05046
6.05814
6.06482
6.07321
6.0807
6.08981
6.09806
6.10796
6.11685
6.12751
6.13684
6.14792
6.15728
6.16816
6.17642
6.18551
6.18243
6.16674
6.07641
5.73101
5.31299
5.1173
5.0457
5.01643
5.00429
5.00066
5.00182
5.00593
5.01202
5.01959
5.02835
5.03815
5.04891
5.06061
5.07323
5.08684
5.10158
5.11776
5.13606
5.15781
5.18551
5.22363
5.2796
5.36441
5.49108
5.66808
5.8875
6.11847
6.32093
6.47063
6.56755
6.62479
6.65651
6.67315
6.68134
6.68497
6.68625
6.68642
6.68612
6.6857
6.68533
6.68508
6.68496
6.68495
6.68505
6.6852
6.68539
6.68557
6.68573
6.68581
6.68577
6.68568
</DataArray>
<DataArray Name="hu" type="Float32" format="ascii">
0.187768
0.549809
0.926081
1.28796
1.66432
2.02545
2.40248
2.76255
3.13882
3.49948
3.87293
4.23602
4.60504
4.9704
5.33524
5.70306
6.06247
6.43323
6.78675
7.15944
7.50805
7.88056
8.22624
8.59726
8.9402
9.30718
9.64834
10.0106
10.3493
10.7069
11.0419
11.3945
11.7252
12.0724
12.397
12.7385
13.0541
13.3883
13.6905
14.011
14.2921
14.5882
14.8304
15.0787
15.1343
15.008
13.8101
9.1296
3.65793
1.21837
0.384192
0.0794086
-0.0200035
-0.0234678
0.0219334
0.093319
0.178778
0.272073
0.369859
0.47039
0.572727
0.676336
0.780667
0.884826
0.98703
1.08352
1.16686
1.22254
1.22365
1.12268
0.84094
0.261315
-0.758416
-2.31976
-4.3547
-6.53654
-8.41055
-9.68037
-10.3288
-10.5022
-10.3667
-10.0465
-9.6208
-9.13611
-8.61887
-8.08374
-7.53875
-6.98821
-6.43442
-5.87864
-5.32154
-4.76352
-4.2048
-3.64555
-3.08585
-2.52575
-1.96529
-1.40452
-0.843534
-0.281504
</DataArray>
<DataArray Name="B" type="Float32" format="ascii">
-20.8
-20.6
-20.4
-20.2
-20
-19.8
-19.6
-19.4
-19.2
-19
-18.8
-18.6
-18.4
-18.2
-18
-17.8
-17.6
-17.4
-17.2
-17
-16.8
-16.6
-16.4
-16.2
-16
-15.8
-15.6
-15.4
-15.2
-15
-14.8
-14.6
-14.4
-14.2
-14
-13.8
-13.6
-13.4
-13.2
-13
-12.8
-12.6
-12.4
-12.2
-12
-11.8
-11.6
-11.4
-11.2
-11
-10.8
-10.6
-10.4
-10.2
-10
-9.8
-9.6
-9.4
-9.2
-9
-8.8
-8.6
-8.4
-8.2
-8
-7.8
-7.6
-7.4
-7.2
-7
-6.8
-6.6
-6.4
-6.2
-6
-5.8
-5.6
-5.4
-5.2
-5
-4.8
-4.6
-4.4
-4.2
-4
-3.8
-3.6
-3.4
-3.2
-3
-2.8
-2.6
-2.4
-2.2
-2
-1.8
-1.6
-1.4
-1.2
-1
</DataArray>
</CellData>
</Piece>
</RectilinearGrid>
</VTKFile>
