<?xml version="1.0"?>
<VTKFile type="RectilinearGrid">
<RectilinearGrid WholeExtent="0 100 0 0 0 0">
<Piece Extent="0 100 0 0 0 0">
<Coordinates>
<DataArray type="Float32" format="ascii">
0
10
20
30
40
50
60
70
80
90
100
110
120
130
140
150
160
170
180
190
200
210
220
230
240
250
260
270
280
290
300
310
320
330
340
350
360
370
380
390
400
410
420
430
440
450
460
470
480
490
500
510
520
530
540
550
560
570
580
590
600
610
620
630
640
650
660
670
680
690
700
710
720
730
740
750
760
770
780
790
800
810
820
830
840
850
860
870
880
890
900
910
920
930
940
950
960
970
980
990
1000
</DataArray>
<DataArray type="Float32" format="ascii">
0
</DataArray>
<DataArray type="Float32" format="ascii">
0
</DataArray>
</Coordinates>
<CellData>
<DataArray Name="h" type="Float32" format="ascii">
6.35162
6.35172
6.3521
6.35247
6.35327
6.35398
6.35525
6.35629
6.35802
6.3594
6.36156
6.36326
6.36586
6.36787
6.37091
6.37332
6.37683
6.37969
6.38366
6.38708
6.39151
6.39551
6.40037
6.40496
6.41025
6.41538
6.42107
6.42671
6.43281
6.43893
6.44544
6.45192
6.45867
6.46524
6.47185
6.47787
6.48334
6.48687
6.4863
6.46185
6.28414
5.83441
5.43071
5.24161
5.16286
5.12188
5.09536
5.07549
5.05903
5.0445
5.03123
5.01896
5.00779
4.99809
4.99071
4.9872
4.99031
5.0047
5.0378
5.10025
5.20443
5.35821
5.55384
5.76145
5.94162
6.0697
6.14498
6.18017
6.18928
6.18273
6.16713
6.14646
6.12308
6.09836
6.07314
6.04796
6.02314
5.99894
5.97551
5.95301
5.93154
5.9112
5.89206
5.87419
5.85763
5.8424
5.82852
5.81598
5.80476
5.79481
5.78609
5.77853
5.77206
5.76661
5.7621
5.75846
5.7556
5.75343
5.75188
5.75101
</DataArray>
<DataArray Name="hu" type="Float32" format="ascii">
0.237768
0.705384
1.18138
1.64921
2.12545
2.59276
3.06932
3.53593
4.01286
4.4785
4.9559
5.42082
5.89839
6.36194
6.83884
7.30118
7.777
8.23873
8.71273
9.17437
9.64623
10.108
10.5768
11.0383
11.5036
11.9639
12.4253
12.8831
13.3401
13.7947
14.2462
14.6948
15.1376
15.5755
16.0029
16.4198
16.8155
17.1822
17.4741
17.4127
15.0918
8.96753
3.70372
1.45844
0.697238
0.429459
0.343597
0.335794
0.36299
0.40473
0.450392
0.493638
0.529238
0.550743
0.547599
0.501381
0.379985
0.129308
-0.33696
-1.14367
-2.43911
-4.32651
-6.73118
-9.30642
-11.5651
-13.1821
-14.131
-14.5651
-14.6613
-14.5529
-14.3247
-14.0267
-13.6875
-13.323
-12.942
-12.5488
-12.1456
-11.7333
-11.312
-10.8814
-10.4412
-9.9909
-9.53023
-9.05885
-8.57661
-8.0835
-7.57964
-7.06525
-6.54073
-6.00658
-5.4634
-4.91189
-4.35281
-3.78694
-3.21509
-2.63812
-2.05689
-1.47228
-0.885252
-0.295632
</DataArray>
<DataArray Name="B" type="Float32" format="ascii">
-20.8
-20.6
-20.4
-20.2
-20
-19.8
-19.6
-19.4
-19.2
-19
-18.8
-18.6
-18.4
-18.2
-18
-17.8
-17.6
-17.4
-17.2
-17
-16.8
-16.6
-16.4
-16.2
-16
-15.8
-15.6
-15.4
-15.2
-15
-14.8
-14.6
-14.4
-14.2
-14
-13.8
-13.6
-13.4
-13.2
-13
-12.8
-12.6
-12.4
-12.2
-12
-11.8
-11.6
-11.4
-11.2
-11
-10.8
-10.6
-10.4
-10.2
-10
-9.8
-9.6
-9.4
-9.2
-9
-8.8
-8.6
-8.4
-8.2
-8
-7.8
-7.6
-7.4
-7.2
-7
-6.8
-6.6
-6.4
-6.2
-6
-5.8
-5.6
-5.4
-5.2
-5
-4.8
-4.6
-4.4
-4.2
-4
-3.8
-3.6
-3.4
-3.2
-3
-2.8
-2.6
-2.4
-2.2
-2
-1.8
-1.6
-1.4
-1.2
-1
</DataArray>
</CellData>
</Piece>
</RectilinearGrid>
</VTKFile>
