<?xml version="1.0"?>
<VTKFile type="RectilinearGrid">
<RectilinearGrid WholeExtent="0 100 0 0 0 0">
<Piece Extent="0 100 0 0 0 0">
<Coordinates>
<DataArray type="Float32" format="ascii">
0
10
20
30
40
50
60
70
80
90
100
110
120
130
140
150
160
170
180
190
200
210
220
230
240
250
260
270
280
290
300
310
320
330
340
350
360
370
380
390
400
410
420
430
440
450
460
470
480
490
500
510
520
530
540
550
560
570
580
590
600
610
620
630
640
650
660
670
680
690
700
710
720
730
740
750
760
770
780
790
800
810
820
830
840
850
860
870
880
890
900
910
920
930
940
950
960
970
980
990
1000
</DataArray>
<DataArray type="Float32" format="ascii">
0
</DataArray>
<DataArray type="Float32" format="ascii">
0
</DataArray>
</Coordinates>
<CellData>
<DataArray Name="h" type="Float32" format="ascii">
8.25216
7.99849
7.6785
7.43826
7.30075
7.23427
7.2063
7.19626
7.19287
7.18982
7.18254
7.16654
7.13715
7.09032
7.02366
6.93689
6.8316
6.71058
6.57722
6.43498
6.28719
6.13699
5.98731
5.84091
5.70044
5.5684
5.44714
5.3387
5.24465
5.16596
5.10274
5.05425
5.01893
4.99461
4.97886
4.96931
4.96392
4.96111
4.95979
4.95925
4.95908
4.95905
4.95906
4.95906
4.95904
4.95898
4.95891
4.9588
4.95868
4.95853
4.95835
4.95815
4.95793
4.95768
4.95742
4.95715
4.9569
4.95673
4.95677
4.9573
4.95887
4.9625
4.96994
4.98393
5.00825
5.04738
5.10577
5.18687
5.29241
5.42207
5.57373
5.74399
5.92874
6.12359
6.32411
6.52583
6.72422
6.91462
7.09222
7.25224
7.3903
7.50312
7.58921
7.64946
7.68671
7.70399
7.70039
7.66351
7.5561
7.30268
6.82244
6.17531
5.6145
5.29318
5.15465
5.10367
5.08653
5.08114
5.07956
5.07915
</DataArray>
<DataArray Name="hu" type="Float32" format="ascii">
-6.60313
-18.544
-27.2824
-32.5014
-35.1476
-36.3143
-36.742
-36.8331
-36.7761
-36.6365
-36.406
-36.031
-35.4367
-34.5547
-33.3458
-31.8098
-29.9795
-27.9092
-25.6617
-23.2999
-20.8823
-18.4619
-16.0862
-13.7979
-11.6354
-9.63332
-7.8213
-6.22323
-4.85544
-3.72451
-2.82589
-2.14354
-1.65112
-1.31534
-1.10027
-0.971806
-0.900958
-0.865555
-0.85021
-0.845246
-0.845116
-0.846944
-0.849413
-0.851945
-0.854283
-0.856337
-0.858102
-0.859636
-0.86101
-0.862262
-0.863407
-0.864458
-0.865422
-0.866306
-0.867087
-0.867656
-0.867691
-0.866451
-0.862378
-0.852307
-0.830058
-0.784185
-0.695053
-0.532241
-0.254184
0.188095
0.842984
1.74843
2.92411
4.36851
6.0609
7.96635
10.0412
12.2371
14.504
16.7908
19.0452
21.213
23.238
25.0626
26.6319
27.9015
28.8477
29.476
29.8178
29.9066
29.7233
29.0951
27.5268
24.0861
18.0277
10.6233
4.84911
1.83059
0.610929
0.181744
0.0441322
0.00506
-0.00281948
-0.00157842
</DataArray>
<DataArray Name="B" type="Float32" format="ascii">
-20.8
-20.6
-20.4
-20.2
-20
-19.8
-19.6
-19.4
-19.2
-19
-18.8
-18.6
-18.4
-18.2
-18
-17.8
-17.6
-17.4
-17.2
-17
-16.8
-16.6
-16.4
-16.2
-16
-15.8
-15.6
-15.4
-15.2
-15
-14.8
-14.6
-14.4
-14.2
-14
-13.8
-13.6
-13.4
-13.2
-13
-12.8
-12.6
-12.4
-12.2
-12
-11.8
-11.6
-11.4
-11.2
-11
-10.8
-10.6
-10.4
-10.2
-10
-9.8
-9.6
-9.4
-9.2
-9
-8.8
-8.6
-8.4
-8.2
-8
-7.8
-7.6
-7.4
-7.2
-7
-6.8
-6.6
-6.4
-6.2
-6
-5.8
-5.6
-5.4
-5.2
-5
-4.8
-4.6
-4.4
-4.2
-4
-3.8
-3.6
-3.4
-3.2
-3
-2.8
-2.6
-2.4
-2.2
-2
-1.8
-1.6
-1.4
-1.2
-1
</DataArray>
</CellData>
</Piece>
</RectilinearGrid>
</VTKFile>
