<?xml version="1.0"?>
<VTKFile type="RectilinearGrid">
<RectilinearGrid WholeExtent="0 100 0 0 0 0">
<Piece Extent="0 100 0 0 0 0">
<Coordinates>
<DataArray type="Float32" format="ascii">
0
10
20
30
40
50
60
70
80
90
100
110
120
130
140
150
160
170
180
190
200
210
220
230
240
250
260
270
280
290
300
310
320
330
340
350
360
370
380
390
400
410
420
430
440
450
460
470
480
490
500
510
520
530
540
550
560
570
580
590
600
610
620
630
640
650
660
670
680
690
700
710
720
730
740
750
760
770
780
790
800
810
820
830
840
850
860
870
880
890
900
910
920
930
940
950
960
970
980
990
1000
</DataArray>
<DataArray type="Float32" format="ascii">
0
</DataArray>
<DataArray type="Float32" format="ascii">
0
</DataArray>
</Coordinates>
<CellData>
<DataArray Name="h" type="Float32" format="ascii">
5.80923
5.80923
5.81004
5.81
5.81157
5.8117
5.81398
5.81421
5.81721
5.8176
5.82136
5.82188
5.82633
5.82732
5.83202
5.834
5.8385
5.84185
5.84609
5.85081
5.85492
5.86113
5.86504
5.87277
5.87666
5.88562
5.88991
5.89969
5.90475
5.91521
5.92127
5.93218
5.93949
5.95094
5.95951
5.97171
5.98147
5.9945
6.00549
6.01945
6.03154
6.04658
6.05962
6.07571
6.08952
6.10624
6.12042
6.13714
6.15042
6.16674
6.16998
6.16374
6.03857
5.59661
5.21689
5.07304
5.0256
5.00957
5.00659
5.01046
5.01872
5.03072
5.04708
5.06988
5.10317
5.15382
5.23204
5.35021
5.51699
5.72576
5.94675
6.1397
6.28028
6.36934
6.4206
6.44802
6.46148
6.46707
6.46836
6.46738
6.4653
6.46276
6.46014
6.45763
6.45534
6.45332
6.4516
6.45017
6.44903
6.44814
6.4475
6.44706
6.44679
6.44666
6.44662
6.44664
6.44667
6.44667
6.44658
6.44646
</DataArray>
<DataArray Name="hu" type="Float32" format="ascii">
0.182355
0.505769
0.871912
1.19278
1.56022
1.87879
2.2462
2.56173
2.92996
3.24149
3.6121
3.91857
4.29051
4.59648
4.96267
5.2766
5.62937
5.956
6.29398
6.63069
6.95381
7.301
7.60723
7.96392
8.25519
8.61598
8.89802
9.2557
9.53343
9.88482
10.1606
10.501
10.7773
11.1069
11.382
11.7022
11.9737
12.2846
12.5516
12.8535
13.113
13.407
13.6559
13.9413
14.1765
14.4472
14.6624
14.9099
15.0876
15.3076
15.3234
15.2115
13.4471
7.54031
2.67447
0.871458
0.262577
0.0291052
-0.0573543
-0.076947
-0.0677229
-0.0542569
-0.060117
-0.117073
-0.274752
-0.6116
-1.243
-2.3109
-3.92263
-6.01985
-8.2729
-10.2063
-11.5131
-12.188
-12.3918
-12.2949
-12.0192
-11.6403
-11.2025
-10.731
-10.2401
-9.73797
-9.22891
-8.71539
-8.1987
-7.6795
-7.15814
-6.63484
-6.10978
-5.58312
-5.05503
-4.52569
-3.99527
-3.46398
-2.93201
-2.39957
-1.86686
-1.33399
-0.801102
-0.267336
</DataArray>
<DataArray Name="B" type="Float32" format="ascii">
-20.8
-20.6
-20.4
-20.2
-20
-19.8
-19.6
-19.4
-19.2
-19
-18.8
-18.6
-18.4
-18.2
-18
-17.8
-17.6
-17.4
-17.2
-17
-16.8
-16.6
-16.4
-16.2
-16
-15.8
-15.6
-15.4
-15.2
-15
-14.8
-14.6
-14.4
-14.2
-14
-13.8
-13.6
-13.4
-13.2
-13
-12.8
-12.6
-12.4
-12.2
-12
-11.8
-11.6
-11.4
-11.2
-11
-10.8
-10.6
-10.4
-10.2
-10
-9.8
-9.6
-9.4
-9.2
-9
-8.8
-8.6
-8.4
-8.2
-8
-7.8
-7.6
-7.4
-7.2
-7
-6.8
-6.6
-6.4
-6.2
-6
-5.8
-5.6
-5.4
-5.2
-5
-4.8
-4.6
-4.4
-4.2
-4
-3.8
-3.6
-3.4
-3.2
-3
-2.8
-2.6
-2.4
-2.2
-2
-1.8
-1.6
-1.4
-1.2
-1
</DataArray>
</CellData>
</Piece>
</RectilinearGrid>
</VTKFile>
