<?xml version="1.0"?>
<VTKFile type="RectilinearGrid">
<RectilinearGrid WholeExtent="0 100 0 0 0 0">
<Piece Extent="0 100 0 0 0 0">
<Coordinates>
<DataArray type="Float32" format="ascii">
0
10
20
30
40
50
60
70
80
90
100
110
120
130
140
150
160
170
180
190
200
210
220
230
240
250
260
270
280
290
300
310
320
330
340
350
360
370
380
390
400
410
420
430
440
450
460
470
480
490
500
510
520
530
540
550
560
570
580
590
600
610
620
630
640
650
660
670
680
690
700
710
720
730
740
750
760
770
780
790
800
810
820
830
840
850
860
870
880
890
900
910
920
930
940
950
960
970
980
990
1000
</DataArray>
<DataArray type="Float32" format="ascii">
0
</DataArray>
<DataArray type="Float32" format="ascii">
0
</DataArray>
</Coordinates>
<CellData>
<DataArray Name="h" type="Float32" format="ascii">
5.19063
5.199
5.21588
5.24135
5.27544
5.31807
5.3691
5.42824
5.49511
5.56926
5.65012
5.73708
5.82946
5.92655
6.02758
6.13174
6.23817
6.34597
6.45415
6.56165
6.66726
6.76965
6.86727
6.95843
7.04132
7.11417
7.1755
7.22443
7.26097
7.28606
7.3012
7.30739
7.30294
7.27901
7.21112
7.0488
6.72797
6.24822
5.74179
5.36156
5.14246
5.03657
4.9913
4.97434
4.96965
4.97004
4.97252
4.97589
4.97972
4.98383
4.98812
4.99248
4.9968
5.00099
5.00491
5.00849
5.01166
5.01436
5.01658
5.01834
5.01966
5.02058
5.02115
5.02142
5.02143
5.02125
5.0209
5.02042
5.01986
5.01922
5.01853
5.01781
5.01706
5.01631
5.01565
5.01524
5.01554
5.01773
5.02465
5.04307
5.08846
5.19297
5.41148
5.79875
6.32913
6.85221
7.22472
7.4343
7.54209
7.60212
7.644
7.68088
7.71751
7.75469
7.79154
7.82645
7.85759
7.88312
7.90123
7.91062
</DataArray>
<DataArray Name="hu" type="Float32" format="ascii">
0.238673
0.728451
1.25427
1.83736
2.49612
3.24502
4.09402
5.04874
6.11066
7.27768
8.5448
9.9047
11.3485
12.866
14.4462
16.0772
17.7463
19.4396
21.1415
22.8346
24.499
26.1121
27.6481
29.0788
30.374
31.5042
32.4441
33.1784
33.7063
34.0433
34.2146
34.2381
34.0874
33.6208
32.4462
29.7757
24.6805
17.3519
9.93811
4.58223
1.57703
0.137064
-0.493541
-0.758355
-0.872887
-0.932485
-0.976496
-1.01967
-1.06643
-1.11709
-1.17053
-1.22509
-1.27907
-1.33087
-1.37912
-1.42275
-1.46099
-1.49339
-1.51986
-1.54056
-1.55587
-1.56635
-1.57264
-1.57542
-1.57534
-1.57301
-1.56894
-1.56358
-1.5573
-1.55038
-1.54304
-1.53547
-1.52785
-1.5205
-1.51413
-1.51051
-1.51408
-1.53595
-1.60321
-1.78051
-2.21614
-3.22618
-5.38075
-9.34148
-15.0176
-20.7814
-24.7211
-26.3897
-26.4151
-25.4682
-23.9512
-22.0701
-19.9329
-17.6024
-15.1209
-12.5207
-9.82873
-7.06864
-4.26203
-1.42487
</DataArray>
<DataArray Name="B" type="Float32" format="ascii">
-20.8
-20.6
-20.4
-20.2
-20
-19.8
-19.6
-19.4
-19.2
-19
-18.8
-18.6
-18.4
-18.2
-18
-17.8
-17.6
-17.4
-17.2
-17
-16.8
-16.6
-16.4
-16.2
-16
-15.8
-15.6
-15.4
-15.2
-15
-14.8
-14.6
-14.4
-14.2
-14
-13.8
-13.6
-13.4
-13.2
-13
-12.8
-12.6
-12.4
-12.2
-12
-11.8
-11.6
-11.4
-11.2
-11
-10.8
-10.6
-10.4
-10.2
-10
-9.8
-9.6
-9.4
-9.2
-9
-8.8
-8.6
-8.4
-8.2
-8
-7.8
-7.6
-7.4
-7.2
-7
-6.8
-6.6
-6.4
-6.2
-6
-5.8
-5.6
-5.4
-5.2
-5
-4.8
-4.6
-4.4
-4.2
-4
-3.8
-3.6
-3.4
-3.2
-3
-2.8
-2.6
-2.4
-2.2
-2
-1.8
-1.6
-1.4
-1.2
-1
</DataArray>
</CellData>
</Piece>
</RectilinearGrid>
</VTKFile>
