<?xml version="1.0"?>
<VTKFile type="RectilinearGrid">
<RectilinearGrid WholeExtent="0 100 0 0 0 0">
<Piece Extent="0 100 0 0 0 0">
<Coordinates>
<DataArray type="Float32" format="ascii">
0
10
20
30
40
50
60
70
80
90
100
110
120
130
140
150
160
170
180
190
200
210
220
230
240
250
260
270
280
290
300
310
320
330
340
350
360
370
380
390
400
410
420
430
440
450
460
470
480
490
500
510
520
530
540
550
560
570
580
590
600
610
620
630
640
650
660
670
680
690
700
710
720
730
740
750
760
770
780
790
800
810
820
830
840
850
860
870
880
890
900
910
920
930
940
950
960
970
980
990
1000
</DataArray>
<DataArray type="Float32" format="ascii">
0
</DataArray>
<DataArray type="Float32" format="ascii">
0
</DataArray>
</Coordinates>
<CellData>
<DataArray Name="h" type="Float32" format="ascii">
8.78563
8.495
8.06192
7.67577
7.42355
7.2888
7.226
7.19951
7.18788
7.17861
7.16349
7.13634
7.09249
7.02926
6.94618
6.84463
6.72728
6.59735
6.45825
6.3132
6.16528
6.01732
5.87203
5.73197
5.59956
5.4771
5.36662
5.26978
5.18768
5.12069
5.06836
5.02944
5.00201
4.98377
4.97238
4.96573
4.96213
4.96034
4.95955
4.95925
4.95917
4.95917
4.95919
4.95918
4.95914
4.95907
4.95898
4.95887
4.95874
4.95858
4.9584
4.9582
4.95797
4.95772
4.95745
4.95717
4.95689
4.95666
4.95656
4.95679
4.95775
4.96019
4.96546
4.97575
4.99429
5.02519
5.07293
5.14151
5.23355
5.3498
5.48911
5.64877
5.8251
6.01391
6.21084
6.41147
6.61131
6.8058
6.99028
7.16008
7.31075
7.4385
7.54083
7.61714
7.66894
7.69906
7.70916
7.69442
7.63369
7.47394
7.12737
6.55102
5.90559
5.44424
5.21561
5.12514
5.09342
5.0831
5.07996
5.07912
</DataArray>
<DataArray Name="hu" type="Float32" format="ascii">
-4.46097
-13.6796
-22.5404
-29.3215
-33.4286
-35.5035
-36.3967
-36.6901
-36.6869
-36.5047
-36.1512
-35.5792
-34.73
-33.5646
-32.0785
-30.3003
-28.2805
-26.0788
-23.7564
-21.3706
-18.9731
-16.6108
-14.3253
-12.1544
-10.1324
-8.28899
-6.64902
-5.23053
-4.04277
-3.08465
-2.34397
-1.79819
-1.41691
-1.16573
-1.01072
-0.921873
-0.875257
-0.853545
-0.845322
-0.843695
-0.844888
-0.847089
-0.849478
-0.85177
-0.85387
-0.855714
-0.8573
-0.858668
-0.859871
-0.860947
-0.861925
-0.862811
-0.863629
-0.864379
-0.865052
-0.865589
-0.865782
-0.865136
-0.86258
-0.855898
-0.840651
-0.808389
-0.744102
-0.62341
-0.411036
-0.0624172
0.47049
1.23024
2.24507
3.52364
5.05481
6.81139
8.75547
10.8433
13.0286
15.2645
17.5034
19.6963
21.7915
23.7346
25.4695
26.9438
28.1171
28.972
29.5191
29.7885
29.7962
29.4726
28.5316
26.2865
21.7257
14.756
7.73142
3.20375
1.13654
0.362303
0.102204
0.0226586
0.00211539
-0.000579495
</DataArray>
<DataArray Name="B" type="Float32" format="ascii">
-20.8
-20.6
-20.4
-20.2
-20
-19.8
-19.6
-19.4
-19.2
-19
-18.8
-18.6
-18.4
-18.2
-18
-17.8
-17.6
-17.4
-17.2
-17
-16.8
-16.6
-16.4
-16.2
-16
-15.8
-15.6
-15.4
-15.2
-15
-14.8
-14.6
-14.4
-14.2
-14
-13.8
-13.6
-13.4
-13.2
-13
-12.8
-12.6
-12.4
-12.2
-12
-11.8
-11.6
-11.4
-11.2
-11
-10.8
-10.6
-10.4
-10.2
-10
-9.8
-9.6
-9.4
-9.2
-9
-8.8
-8.6
-8.4
-8.2
-8
-7.8
-7.6
-7.4
-7.2
-7
-6.8
-6.6
-6.4
-6.2
-6
-5.8
-5.6
-5.4
-5.2
-5
-4.8
-4.6
-4.4
-4.2
-4
-3.8
-3.6
-3.4
-3.2
-3
-2.8
-2.6
-2.4
-2.2
-2
-1.8
-1.6
-1.4
-1.2
-1
</DataArray>
</CellData>
</Piece>
</RectilinearGrid>
</VTKFile>
