<?xml version="1.0"?>
<VTKFile type="RectilinearGrid">
<RectilinearGrid WholeExtent="0 100 0 0 0 0">
<Piece Extent="0 100 0 0 0 0">
<Coordinates>
<DataArray type="Float32" format="ascii">
0
10
20
30
40
50
60
70
80
90
100
110
120
130
140
150
160
170
180
190
200
210
220
230
240
250
260
270
280
290
300
310
320
330
340
350
360
370
380
390
400
410
420
430
440
450
460
470
480
490
500
510
520
530
540
550
560
570
580
590
600
610
620
630
640
650
660
670
680
690
700
710
720
730
740
750
760
770
780
790
800
810
820
830
840
850
860
870
880
890
900
910
920
930
940
950
960
970
980
990
1000
</DataArray>
<DataArray type="Float32" format="ascii">
0
</DataArray>
<DataArray type="Float32" format="ascii">
0
</DataArray>
</Coordinates>
<CellData>
<DataArray Name="h" type="Float32" format="ascii">
4.85749
4.85725
4.85686
4.85637
4.8558
4.85516
4.8545
4.85389
4.85348
4.85366
4.85513
4.85913
4.86752
4.8825
4.90593
4.93805
4.97657
5.01684
5.05364
5.08357
5.10653
5.12587
5.14813
5.18348
5.24745
5.36287
5.55715
5.8432
6.18159
6.47784
6.66369
6.74915
6.77553
6.77271
6.75597
6.73275
6.70686
6.68032
6.65427
6.62936
6.60593
6.58421
6.56428
6.54618
6.52991
6.51543
6.50272
6.49175
6.48247
6.4728
6.46344
6.45661
6.45468
6.45495
6.45739
6.46198
6.46872
6.47767
6.48896
6.50287
6.51988
6.54074
6.56643
6.59798
6.63619
6.68127
6.73266
6.78894
6.84819
6.90836
6.96773
7.02526
7.0806
7.13383
7.18504
7.23361
7.27696
7.30723
7.30288
7.21109
6.936
6.41996
5.8292
5.41624
5.21433
5.13212
5.10069
5.08871
5.08406
5.08224
5.08159
5.08144
5.08154
5.08173
5.08195
5.08217
5.08236
5.08251
5.08262
5.08268
</DataArray>
<DataArray Name="hu" type="Float32" format="ascii">
-0.0199582
-0.0596541
-0.0991465
-0.138664
-0.178254
-0.218013
-0.258171
-0.299334
-0.343039
-0.392802
-0.455786
-0.544816
-0.679701
-0.885449
-1.18469
-1.58455
-2.06422
-2.57453
-3.05576
-3.4649
-3.79541
-4.08224
-4.40127
-4.87752
-5.7112
-7.21197
-9.78052
-13.6694
-18.4241
-22.7123
-25.4424
-26.6596
-26.9391
-26.7207
-26.2329
-25.5883
-24.8454
-24.0365
-23.1801
-22.2869
-21.3636
-20.4148
-19.444
-18.4536
-17.4458
-16.4221
-15.3838
-14.332
-13.2678
-12.224
-11.1499
-10.0128
-8.89527
-7.76267
-6.61615
-5.45686
-4.28568
-3.10287
-1.90762
-0.69748
0.532397
1.78978
3.0852
4.43024
5.83392
7.29844
8.81592
10.3682
11.93
13.4742
14.9769
16.4213
17.7983
19.1046
20.3379
21.4869
22.5136
23.3099
23.5908
22.6781
19.4183
13.4378
7.09425
3.03281
1.20166
0.511877
0.271713
0.19005
0.160275
0.145696
0.134394
0.122894
0.110443
0.0970831
0.0830248
0.0684665
0.0535584
0.038418
0.0231337
0.00773302
</DataArray>
<DataArray Name="B" type="Float32" format="ascii">
-0.4
-0.8
-1.2
-1.6
-2
-2.4
-2.8
-3.2
-3.6
-4
-4.4
-4.8
-5.2
-5.6
-6
-6.4
-6.8
-7.2
-7.6
-8
-8.4
-8.8
-9.2
-9.6
-10
-10.4
-10.8
-11.2
-11.6
-12
-12.4
-12.8
-13.2
-13.6
-14
-14.4
-14.8
-15.2
-15.6
-16
-16.4
-16.8
-17.2
-17.6
-18
-18.4
-18.8
-19.2
-19.6
-20
-9.8
-9.6
-9.4
-9.2
-9
-8.8
-8.6
-8.4
-8.2
-8
-7.8
-7.6
-7.4
-7.2
-7
-6.8
-6.6
-6.4
-6.2
-6
-5.8
-5.6
-5.4
-5.2
-5
-4.8
-4.6
-4.4
-4.2
-4
-3.8
-3.6
-3.4
-3.2
-3
-2.8
-2.6
-2.4
-2.2
-2
-1.8
-1.6
-1.4
-1.2
-1
-0.8
-0.6
-0.4
-0.2
0
</DataArray>
</CellData>
</Piece>
</RectilinearGrid>
</VTKFile>
