<?xml version="1.0"?>
<VTKFile type="RectilinearGrid">
<RectilinearGrid WholeExtent="0 100 0 0 0 0">
<Piece Extent="0 100 0 0 0 0">
<Coordinates>
<DataArray type="Float32" format="ascii">
0
10
20
30
40
50
60
70
80
90
100
110
120
130
140
150
160
170
180
190
200
210
220
230
240
250
260
270
280
290
300
310
320
330
340
350
360
370
380
390
400
410
420
430
440
450
460
470
480
490
500
510
520
530
540
550
560
570
580
590
600
610
620
630
640
650
660
670
680
690
700
710
720
730
740
750
760
770
780
790
800
810
820
830
840
850
860
870
880
890
900
910
920
930
940
950
960
970
980
990
1000
</DataArray>
<DataArray type="Float32" format="ascii">
0
</DataArray>
<DataArray type="Float32" format="ascii">
0
</DataArray>
</Coordinates>
<CellData>
<DataArray Name="h" type="Float32" format="ascii">
5.95944
5.9605
5.96222
5.96441
5.96705
5.97015
5.97367
5.9776
5.98192
5.98661
5.99163
5.99703
6.00268
6.00878
6.01497
6.02182
6.02841
6.03608
6.04282
6.05146
6.05798
6.06785
6.07376
6.0852
6.09012
6.10353
6.1072
6.12285
6.1252
6.14306
6.14426
6.164
6.16444
6.18534
6.1858
6.20707
6.20851
6.22921
6.23259
6.25167
6.25793
6.27401
6.28465
6.29529
6.31519
6.30907
6.36377
6.28827
6.45181
6.25042
6.32604
5.94296
5.83373
5.73143
5.77444
5.83035
5.91213
5.96834
6.00837
6.02269
6.02406
6.01345
5.99798
5.97847
5.95778
5.93614
5.91464
5.89337
5.87278
5.85292
5.83398
5.81599
5.79902
5.78308
5.76815
5.75421
5.7412
5.72906
5.7177
5.70706
5.69705
5.6876
5.67864
5.67013
5.662
5.65423
5.64682
5.63974
5.63301
5.62666
5.62072
5.61521
5.61018
5.60566
5.60169
5.5983
5.59551
5.59333
5.59178
5.59092
</DataArray>
<DataArray Name="hu" type="Float32" format="ascii">
0.195938
0.586111
0.974636
1.36304
1.75131
2.13945
2.52747
2.91533
3.30316
3.69072
4.07847
4.46562
4.85359
5.24001
5.62881
6.01373
6.40466
6.78655
7.18181
7.55802
7.96108
8.32733
8.74242
9.09289
9.52456
9.85293
10.3047
10.6055
11.0792
11.3508
11.8453
12.0897
12.6009
12.8246
13.3441
13.5541
14.0716
14.2742
14.7804
14.9752
15.4653
15.6343
16.1067
16.1766
16.6593
16.352
17.1576
15.375
17.5381
13.0056
12.9961
6.02436
2.90748
-0.712066
-3.00754
-5.28068
-6.93341
-8.25634
-9.05299
-9.52772
-9.69707
-9.69997
-9.56877
-9.36922
-9.11783
-8.84206
-8.5493
-8.25073
-7.94968
-7.65058
-7.35482
-7.06397
-6.77835
-6.49822
-6.22339
-5.9536
-5.68845
-5.42751
-5.17034
-4.91654
-4.66571
-4.41752
-4.1717
-3.92797
-3.68613
-3.44595
-3.20725
-2.96979
-2.73331
-2.49752
-2.26213
-2.02681
-1.79127
-1.55523
-1.31846
-1.0808
-0.842194
-0.602678
-0.362403
-0.121056
</DataArray>
<DataArray Name="B" type="Float32" format="ascii">
-0.4
-0.8
-1.2
-1.6
-2
-2.4
-2.8
-3.2
-3.6
-4
-4.4
-4.8
-5.2
-5.6
-6
-6.4
-6.8
-7.2
-7.6
-8
-8.4
-8.8
-9.2
-9.6
-10
-10.4
-10.8
-11.2
-11.6
-12
-12.4
-12.8
-13.2
-13.6
-14
-14.4
-14.8
-15.2
-15.6
-16
-16.4
-16.8
-17.2
-17.6
-18
-18.4
-18.8
-19.2
-19.6
-20
-9.8
-9.6
-9.4
-9.2
-9
-8.8
-8.6
-8.4
-8.2
-8
-7.8
-7.6
-7.4
-7.2
-7
-6.8
-6.6
-6.4
-6.2
-6
-5.8
-5.6
-5.4
-5.2
-5
-4.8
-4.6
-4.4
-4.2
-4
-3.8
-3.6
-3.4
-3.2
-3
-2.8
-2.6
-2.4
-2.2
-2
-1.8
-1.6
-1.4
-1.2
-1
-0.8
-0.6
-0.4
-0.2
0
</DataArray>
</CellData>
</Piece>
</RectilinearGrid>
</VTKFile>
