<?xml version="1.0"?>
<VTKFile type="RectilinearGrid">
<RectilinearGrid WholeExtent="0 100 0 0 0 0">
<Piece Extent="0 100 0 0 0 0">
<Coordinates>
<DataArray type="Float32" format="ascii">
0
10
20
30
40
50
60
70
80
90
100
110
120
130
140
150
160
170
180
190
200
210
220
230
240
250
260
270
280
290
300
310
320
330
340
350
360
370
380
390
400
410
420
430
440
450
460
470
480
490
500
510
520
530
540
550
560
570
580
590
600
610
620
630
640
650
660
670
680
690
700
710
720
730
740
750
760
770
780
790
800
810
820
830
840
850
860
870
880
890
900
910
920
930
940
950
960
970
980
990
1000
</DataArray>
<DataArray type="Float32" format="ascii">
0
</DataArray>
<DataArray type="Float32" format="ascii">
0
</DataArray>
</Coordinates>
<CellData>
<DataArray Name="h" type="Float32" format="ascii">
8.74103
8.67737
8.47703
8.03119
7.40272
6.87851
6.58292
6.43659
6.35392
6.29433
6.24322
6.19581
6.15058
6.10706
6.06508
6.02457
5.98549
5.94779
5.91147
5.87652
5.84294
5.81074
5.77989
5.75038
5.72216
5.69525
5.66962
5.64529
5.62222
5.60044
5.57986
5.56046
5.54219
5.52502
5.50896
5.49393
5.48003
5.46715
5.45533
5.44451
5.43466
5.42576
5.41773
5.41055
5.40423
5.39871
5.39399
5.39007
5.38693
5.38383
5.37999
5.37711
5.37629
5.37662
5.37811
5.38081
5.3848
5.39016
5.39694
5.40521
5.41505
5.42651
5.43966
5.45454
5.4712
5.48968
5.51003
5.53229
5.55652
5.58274
5.61095
5.64113
5.67322
5.70715
5.74281
5.7801
5.8189
5.85906
5.90044
5.94289
5.98629
6.03051
6.07546
6.12105
6.16719
6.21384
6.26098
6.30859
6.35665
6.40512
6.45402
6.50333
6.55298
6.60271
6.65147
6.69603
6.72736
6.72176
6.6384
6.49935
</DataArray>
<DataArray Name="hu" type="Float32" format="ascii">
0.479217
1.08518
0.394121
-2.66816
-7.30964
-10.8723
-12.4619
-12.8522
-12.7489
-12.4756
-12.1506
-11.8128
-11.4747
-11.1401
-10.8095
-10.4831
-10.1609
-9.84274
-9.52851
-9.21765
-8.90957
-8.60374
-8.29958
-7.99691
-7.6952
-7.39415
-7.09282
-6.79093
-6.48748
-6.1826
-5.87551
-5.56645
-5.25505
-4.94123
-4.6251
-4.30537
-3.98352
-3.65779
-3.32948
-2.99826
-2.66478
-2.32897
-1.99154
-1.65218
-1.31141
-0.968761
-0.624312
-0.277944
0.0702766
0.408628
0.754067
1.11791
1.47076
1.82369
2.17596
2.52727
2.87739
3.22623
3.57342
3.91845
4.26073
4.59954
4.93408
5.26359
5.58738
5.90498
6.21615
6.52084
6.81913
7.11116
7.3972
7.67775
7.95352
8.22541
8.49442
8.76162
9.02814
9.29519
9.56395
9.83556
10.111
10.3909
10.6761
10.9671
11.2644
11.5682
11.8784
12.1946
12.5167
12.844
13.1757
13.51
13.8433
14.1668
14.456
14.6422
14.5222
13.5279
10.4077
4.04771
</DataArray>
<DataArray Name="B" type="Float32" format="ascii">
-0.4
-0.8
-1.2
-1.6
-2
-2.4
-2.8
-3.2
-3.6
-4
-4.4
-4.8
-5.2
-5.6
-6
-6.4
-6.8
-7.2
-7.6
-8
-8.4
-8.8
-9.2
-9.6
-10
-10.4
-10.8
-11.2
-11.6
-12
-12.4
-12.8
-13.2
-13.6
-14
-14.4
-14.8
-15.2
-15.6
-16
-16.4
-16.8
-17.2
-17.6
-18
-18.4
-18.8
-19.2
-19.6
-20
-9.8
-9.6
-9.4
-9.2
-9
-8.8
-8.6
-8.4
-8.2
-8
-7.8
-7.6
-7.4
-7.2
-7
-6.8
-6.6
-6.4
-6.2
-6
-5.8
-5.6
-5.4
-5.2
-5
-4.8
-4.6
-4.4
-4.2
-4
-3.8
-3.6
-3.4
-3.2
-3
-2.8
-2.6
-2.4
-2.2
-2
-1.8
-1.6
-1.4
-1.2
-1
-0.8
-0.6
-0.4
-0.2
0
</DataArray>
</CellData>
</Piece>
</RectilinearGrid>
</VTKFile>
