<?xml version="1.0"?>
<VTKFile type="RectilinearGrid">
<RectilinearGrid WholeExtent="0 100 0 0 0 0">
<Piece Extent="0 100 0 0 0 0">
<Coordinates>
<DataArray type="Float32" format="ascii">
0
10
20
30
40
50
60
70
80
90
100
110
120
130
140
150
160
170
180
190
200
210
220
230
240
250
260
270
280
290
300
310
320
330
340
350
360
370
380
390
400
410
420
430
440
450
460
470
480
490
500
510
520
530
540
550
560
570
580
590
600
610
620
630
640
650
660
670
680
690
700
710
720
730
740
750
760
770
780
790
800
810
820
830
840
850
860
870
880
890
900
910
920
930
940
950
960
970
980
990
1000
</DataArray>
<DataArray type="Float32" format="ascii">
0
</DataArray>
<DataArray type="Float32" format="ascii">
0
</DataArray>
</Coordinates>
<CellData>
<DataArray Name="h" type="Float32" format="ascii">
4.82681
4.82657
4.82618
4.82569
4.82511
4.82446
4.82374
4.82297
4.82217
4.82139
4.82067
4.82008
4.81969
4.81962
4.81998
4.82096
4.82281
4.82593
4.83093
4.83881
4.8511
4.86989
4.89743
4.93529
4.98306
5.03756
5.09361
5.14612
5.1924
5.23282
5.27014
5.30846
5.35303
5.41098
5.49269
5.61273
5.78829
6.03097
6.33032
6.64192
6.90693
7.09404
7.21079
7.27983
7.32014
7.34375
7.35781
7.3665
7.37229
7.37463
7.37768
7.38533
7.39847
7.41502
7.4369
7.46609
7.50368
7.5492
7.60032
7.6535
7.70521
7.75287
7.79535
7.83275
7.86575
7.89505
7.92059
7.94072
7.95009
7.93461
7.85978
7.65424
7.23145
6.62628
6.06277
5.69898
5.50626
5.40509
5.34435
5.30069
5.26488
5.23353
5.20548
5.18042
5.15827
5.13904
5.12269
5.10915
5.09825
5.08975
5.08336
5.07876
5.07559
5.07353
5.07227
5.07157
5.07122
5.07107
5.07103
5.07103
</DataArray>
<DataArray Name="hu" type="Float32" format="ascii">
-0.022816
-0.0681977
-0.11335
-0.158501
-0.203622
-0.24866
-0.293537
-0.338154
-0.38238
-0.425999
-0.468666
-0.509838
-0.548719
-0.584263
-0.615229
-0.640377
-0.658818
-0.670756
-0.678842
-0.690188
-0.718619
-0.785372
-0.915551
-1.12772
-1.41807
-1.74893
-2.05519
-2.27081
-2.35796
-2.3187
-2.18772
-2.02013
-1.88904
-1.89656
-2.19436
-3.00184
-4.59045
-7.1728
-10.65
-14.3885
-17.4635
-19.3258
-20.0454
-19.9624
-19.377
-18.4848
-17.4035
-16.2033
-14.9265
-13.6302
-12.2641
-10.8018
-9.34268
-7.82756
-6.23926
-4.55764
-2.77029
-0.883438
1.07404
3.05746
5.02061
6.92936
8.76781
10.5353
12.2383
13.8823
15.4641
16.96
18.2975
19.2858
19.4617
17.9044
13.6327
7.42421
2.09312
-0.836694
-1.94781
-2.16557
-2.02753
-1.76988
-1.48592
-1.21118
-0.959195
-0.735154
-0.540898
-0.376645
-0.241608
-0.134219
-0.0522461
0.00709096
0.0469755
0.0707975
0.0819243
0.0834817
0.0781809
0.068216
0.0552498
0.0404649
0.0246517
0.00828314
</DataArray>
<DataArray Name="B" type="Float32" format="ascii">
-0.4
-0.8
-1.2
-1.6
-2
-2.4
-2.8
-3.2
-3.6
-4
-4.4
-4.8
-5.2
-5.6
-6
-6.4
-6.8
-7.2
-7.6
-8
-8.4
-8.8
-9.2
-9.6
-10
-10.4
-10.8
-11.2
-11.6
-12
-12.4
-12.8
-13.2
-13.6
-14
-14.4
-14.8
-15.2
-15.6
-16
-16.4
-16.8
-17.2
-17.6
-18
-18.4
-18.8
-19.2
-19.6
-20
-9.8
-9.6
-9.4
-9.2
-9
-8.8
-8.6
-8.4
-8.2
-8
-7.8
-7.6
-7.4
-7.2
-7
-6.8
-6.6
-6.4
-6.2
-6
-5.8
-5.6
-5.4
-5.2
-5
-4.8
-4.6
-4.4
-4.2
-4
-3.8
-3.6
-3.4
-3.2
-3
-2.8
-2.6
-2.4
-2.2
-2
-1.8
-1.6
-1.4
-1.2
-1
-0.8
-0.6
-0.4
-0.2
0
</DataArray>
</CellData>
</Piece>
</RectilinearGrid>
</VTKFile>
