<?xml version="1.0"?>
<VTKFile type="RectilinearGrid">
<RectilinearGrid WholeExtent="0 100 0 0 0 0">
<Piece Extent="0 100 0 0 0 0">
<Coordinates>
<DataArray type="Float32" format="ascii">
0
10
20
30
40
50
60
70
80
90
100
110
120
130
140
150
160
170
180
190
200
210
220
230
240
250
260
270
280
290
300
310
320
330
340
350
360
370
380
390
400
410
420
430
440
450
460
470
480
490
500
510
520
530
540
550
560
570
580
590
600
610
620
630
640
650
660
670
680
690
700
710
720
730
740
750
760
770
780
790
800
810
820
830
840
850
860
870
880
890
900
910
920
930
940
950
960
970
980
990
1000
</DataArray>
<DataArray type="Float32" format="ascii">
0
</DataArray>
<DataArray type="Float32" format="ascii">
0
</DataArray>
</Coordinates>
<CellData>
<DataArray Name="h" type="Float32" format="ascii">
5.78004
5.78354
5.78977
5.79836
5.80937
5.82282
5.83874
5.85709
5.87784
5.90088
5.92608
5.9533
5.98237
6.01314
6.04545
6.07914
6.11407
6.15004
6.18691
6.2245
6.26268
6.30129
6.34023
6.37937
6.41862
6.45788
6.49708
6.5361
6.57488
6.61322
6.65103
6.68793
6.72358
6.75706
6.78712
6.81052
6.82038
6.78998
6.6061
6.18952
5.78648
5.54555
5.42047
5.35364
5.31455
5.28917
5.27112
5.25749
5.24687
5.23866
5.23156
5.22517
5.22174
5.2242
5.23903
5.28273
5.39163
5.62077
5.98505
6.36961
6.6208
6.71987
6.73211
6.70786
6.66964
6.62588
6.57962
6.53204
6.48363
6.43461
6.38513
6.33525
6.28504
6.23451
6.18369
6.13259
6.0812
6.02951
5.97751
5.9252
5.87257
5.81963
5.76644
5.71311
5.65984
5.60693
5.55474
5.50371
5.45436
5.40725
5.36297
5.32211
5.28518
5.25258
5.22455
5.2012
5.18252
5.16844
5.15883
5.15384
</DataArray>
<DataArray Name="hu" type="Float32" format="ascii">
0.417823
1.24822
2.07093
2.8873
3.69565
4.4946
5.28297
6.05977
6.82428
7.57617
8.31551
9.04265
9.75815
10.4626
11.1569
11.8417
12.5182
13.1876
13.851
14.5096
15.1646
15.8171
16.4681
17.1185
17.7689
18.42
19.0719
19.7247
20.3776
21.0298
21.6784
22.3207
22.9483
23.5512
24.1038
24.562
24.8065
24.4214
21.6013
15.1879
9.08097
5.47157
3.59874
2.58922
1.98873
1.58921
1.2959
1.06452
0.87334
0.711386
0.564254
0.431206
0.306617
0.146284
-0.133915
-0.734113
-2.08998
-4.88565
-9.39369
-14.2864
-17.5674
-18.883
-19.0507
-18.7377
-18.2466
-17.6909
-17.1117
-16.5251
-15.938
-15.3539
-14.7752
-14.2033
-13.6396
-13.085
-12.5405
-12.0069
-11.4849
-10.9751
-10.4781
-9.99408
-9.52326
-9.06545
-8.62001
-8.18568
-7.76042
-7.34145
-6.92541
-6.50848
-6.08651
-5.65516
-5.21009
-4.74737
-4.26395
-3.75801
-3.22914
-2.67825
-2.1074
-1.51959
-0.918694
-0.307777
</DataArray>
<DataArray Name="B" type="Float32" format="ascii">
-0.4
-0.8
-1.2
-1.6
-2
-2.4
-2.8
-3.2
-3.6
-4
-4.4
-4.8
-5.2
-5.6
-6
-6.4
-6.8
-7.2
-7.6
-8
-8.4
-8.8
-9.2
-9.6
-10
-10.4
-10.8
-11.2
-11.6
-12
-12.4
-12.8
-13.2
-13.6
-14
-14.4
-14.8
-15.2
-15.6
-16
-16.4
-16.8
-17.2
-17.6
-18
-18.4
-18.8
-19.2
-19.6
-20
-9.8
-9.6
-9.4
-9.2
-9
-8.8
-8.6
-8.4
-8.2
-8
-7.8
-7.6
-7.4
-7.2
-7
-6.8
-6.6
-6.4
-6.2
-6
-5.8
-5.6
-5.4
-5.2
-5
-4.8
-4.6
-4.4
-4.2
-4
-3.8
-3.6
-3.4
-3.2
-3
-2.8
-2.6
-2.4
-2.2
-2
-1.8
-1.6
-1.4
-1.2
-1
-0.8
-0.6
-0.4
-0.2
0
</DataArray>
</CellData>
</Piece>
</RectilinearGrid>
</VTKFile>
