<?xml version="1.0"?>
<VTKFile type="RectilinearGrid">
<RectilinearGrid WholeExtent="0 100 0 0 0 0">
<Piece Extent="0 100 0 0 0 0">
<Coordinates>
<DataArray type="Float32" format="ascii">
0
10
20
30
40
50
60
70
80
90
100
110
120
130
140
150
160
170
180
190
200
210
220
230
240
250
260
270
280
290
300
310
320
330
340
350
360
370
380
390
400
410
420
430
440
450
460
470
480
490
500
510
520
530
540
550
560
570
580
590
600
610
620
630
640
650
660
670
680
690
700
710
720
730
740
750
760
770
780
790
800
810
820
830
840
850
860
870
880
890
900
910
920
930
940
950
960
970
980
990
1000
</DataArray>
<DataArray type="Float32" format="ascii">
0
</DataArray>
<DataArray type="Float32" format="ascii">
0
</DataArray>
</Coordinates>
<CellData>
<DataArray Name="h" type="Float32" format="ascii">
5.74218
5.74353
5.7457
5.74856
5.75224
5.75684
5.76242
5.76903
5.77667
5.78536
5.79512
5.80594
5.81785
5.83083
5.84488
5.86
5.87617
5.89339
5.91165
5.93094
5.95127
5.97261
5.99493
6.01822
6.04243
6.06753
6.09347
6.12021
6.14768
6.17585
6.20463
6.23395
6.26371
6.29382
6.32412
6.35443
6.38446
6.41374
6.44148
6.46589
6.48241
6.4745
6.37819
6.07342
5.66284
5.39236
5.26464
5.20857
5.18416
5.17415
5.17085
5.17082
5.17218
5.1742
5.17645
5.17878
5.18114
5.18354
5.18603
5.18871
5.19183
5.19585
5.20187
5.21222
5.23188
5.27068
5.34557
5.4787
5.68325
5.93845
6.18577
6.37007
6.47743
6.52602
6.53972
6.53554
6.52312
6.50733
6.49054
6.47385
6.45781
6.44268
6.42859
6.41561
6.40374
6.39298
6.38327
6.3746
6.36692
6.36019
6.35438
6.34944
6.34531
6.34191
6.33918
6.33701
6.33534
6.33407
6.33311
6.33252
</DataArray>
<DataArray Name="hu" type="Float32" format="ascii">
0.327465
0.979215
1.62734
2.27388
2.91829
3.56016
4.19916
4.83506
5.46759
6.09646
6.72128
7.34163
7.95706
8.56715
9.17156
9.77001
10.3623
10.9482
11.5275
12.1
12.6656
13.2241
13.7755
14.3198
14.857
15.3872
15.9105
16.4269
16.9369
17.4406
17.9385
18.4309
18.9181
19.4001
19.8765
20.346
20.8057
21.25
21.6667
22.03
22.2657
22.1092
20.5239
15.6083
9.08819
4.80719
2.73415
1.75818
1.26631
0.994406
0.819802
0.69436
0.597406
0.511088
0.430198
0.35282
0.278177
0.205912
0.135545
0.0662119
-0.00402833
-0.0797413
-0.171736
-0.304587
-0.531154
-0.956696
-1.76453
-3.20144
-5.43369
-8.26388
-11.0404
-13.0956
-14.2251
-14.6251
-14.5792
-14.2942
-13.8874
-13.4181
-12.9147
-12.3907
-11.8526
-11.3034
-10.7446
-10.1772
-9.60181
-9.01916
-8.42975
-7.83403
-7.23235
-6.62498
-6.01218
-5.39425
-4.77155
-4.14454
-3.51373
-2.8797
-2.24303
-1.60432
-0.964186
-0.321928
</DataArray>
<DataArray Name="B" type="Float32" format="ascii">
-0.4
-0.8
-1.2
-1.6
-2
-2.4
-2.8
-3.2
-3.6
-4
-4.4
-4.8
-5.2
-5.6
-6
-6.4
-6.8
-7.2
-7.6
-8
-8.4
-8.8
-9.2
-9.6
-10
-10.4
-10.8
-11.2
-11.6
-12
-12.4
-12.8
-13.2
-13.6
-14
-14.4
-14.8
-15.2
-15.6
-16
-16.4
-16.8
-17.2
-17.6
-18
-18.4
-18.8
-19.2
-19.6
-20
-9.8
-9.6
-9.4
-9.2
-9
-8.8
-8.6
-8.4
-8.2
-8
-7.8
-7.6
-7.4
-7.2
-7
-6.8
-6.6
-6.4
-6.2
-6
-5.8
-5.6
-5.4
-5.2
-5
-4.8
-4.6
-4.4
-4.2
-4
-3.8
-3.6
-3.4
-3.2
-3
-2.8
-2.6
-2.4
-2.2
-2
-1.8
-1.6
-1.4
-1.2
-1
-0.8
-0.6
-0.4
-0.2
0
</DataArray>
</CellData>
</Piece>
</RectilinearGrid>
</VTKFile>
