<?xml version="1.0"?>
<VTKFile type="RectilinearGrid">
<RectilinearGrid WholeExtent="0 100 0 0 0 0">
<Piece Extent="0 100 0 0 0 0">
<Coordinates>
<DataArray type="Float32" format="ascii">
0
10
20
30
40
50
60
70
80
90
100
110
120
130
140
150
160
170
180
190
200
210
220
230
240
250
260
270
280
290
300
310
320
330
340
350
360
370
380
390
400
410
420
430
440
450
460
470
480
490
500
510
520
530
540
550
560
570
580
590
600
610
620
630
640
650
660
670
680
690
700
710
720
730
740
750
760
770
780
790
800
810
820
830
840
850
860
870
880
890
900
910
920
930
940
950
960
970
980
990
1000
</DataArray>
<DataArray type="Float32" format="ascii">
0
</DataArray>
<DataArray type="Float32" format="ascii">
0
</DataArray>
</Coordinates>
<CellData>
<DataArray Name="h" type="Float32" format="ascii">
4.82352
4.84875
4.89372
4.95298
5.02232
5.0986
5.17963
5.26389
5.35035
5.43829
5.5272
5.61667
5.70639
5.79612
5.88568
5.97493
6.06372
6.15193
6.23943
6.3261
6.41184
6.49656
6.58013
6.6624
6.74318
6.82222
6.89927
6.97398
7.04591
7.11437
7.17821
7.23544
7.28228
7.31107
7.30561
7.2326
7.03624
6.67373
6.20604
5.78522
5.50055
5.33882
5.25438
5.21168
5.19024
5.17948
5.17406
5.17134
5.16996
5.16927
5.16887
5.1686
5.16839
5.1682
5.16801
5.16779
5.16754
5.16726
5.16695
5.16662
5.16625
5.16589
5.16557
5.16542
5.16572
5.16715
5.17128
5.18174
5.20677
5.26414
5.38801
5.62795
6.01196
6.47391
6.86549
7.09629
7.18691
7.19439
7.15998
7.10506
7.03956
6.96797
6.89244
6.81403
6.73339
6.6509
6.56686
6.48149
6.39503
6.30787
6.22063
6.1343
6.05031
5.97055
5.89727
5.83275
5.77902
5.73754
5.70914
5.69452
</DataArray>
<DataArray Name="hu" type="Float32" format="ascii">
0.229333
0.694985
1.18893
1.73225
2.33591
3.00424
3.73667
4.52963
5.37831
6.27759
7.22266
8.20922
9.23347
10.292
11.3817
12.4995
13.6428
14.8091
15.996
17.2011
18.4216
19.6545
20.8967
22.145
23.3958
24.6452
25.8879
27.1174
28.3247
29.4967
30.6139
31.6423
32.5192
33.1178
33.1723
32.1379
29.1189
23.486
16.3111
9.97594
5.75233
3.36811
2.1226
1.48964
1.16974
1.00783
0.925825
0.884347
0.863411
0.852873
0.847292
0.844588
0.843367
0.842582
0.84188
0.841112
0.840239
0.839248
0.838143
0.836906
0.835465
0.833616
0.830826
0.825801
0.815485
0.792743
0.741084
0.622646
0.351987
-0.256017
-1.56504
-4.13683
-8.38569
-13.7191
-18.4244
-21.2604
-22.3487
-22.3716
-21.8581
-21.0896
-20.1984
-19.2455
-18.2607
-17.2597
-16.2511
-15.2407
-14.2324
-13.2292
-12.2334
-11.2456
-10.2645
-9.28639
-8.30443
-7.30909
-6.28927
-5.23452
-4.13778
-2.99754
-1.81897
-0.610641
</DataArray>
<DataArray Name="B" type="Float32" format="ascii">
-0.4
-0.8
-1.2
-1.6
-2
-2.4
-2.8
-3.2
-3.6
-4
-4.4
-4.8
-5.2
-5.6
-6
-6.4
-6.8
-7.2
-7.6
-8
-8.4
-8.8
-9.2
-9.6
-10
-10.4
-10.8
-11.2
-11.6
-12
-12.4
-12.8
-13.2
-13.6
-14
-14.4
-14.8
-15.2
-15.6
-16
-16.4
-16.8
-17.2
-17.6
-18
-18.4
-18.8
-19.2
-19.6
-20
-9.8
-9.6
-9.4
-9.2
-9
-8.8
-8.6
-8.4
-8.2
-8
-7.8
-7.6
-7.4
-7.2
-7
-6.8
-6.6
-6.4
-6.2
-6
-5.8
-5.6
-5.4
-5.2
-5
-4.8
-4.6
-4.4
-4.2
-4
-3.8
-3.6
-3.4
-3.2
-3
-2.8
-2.6
-2.4
-2.2
-2
-1.8
-1.6
-1.4
-1.2
-1
-0.8
-0.6
-0.4
-0.2
0
</DataArray>
</CellData>
</Piece>
</RectilinearGrid>
</VTKFile>
