<?xml version="1.0"?>
<VTKFile type="RectilinearGrid">
<RectilinearGrid WholeExtent="0 100 0 0 0 0">
<Piece Extent="0 100 0 0 0 0">
<Coordinates>
<DataArray type="Float32" format="ascii">
0
10
20
30
40
50
60
70
80
90
100
110
120
130
140
150
160
170
180
190
200
210
220
230
240
250
260
270
280
290
300
310
320
330
340
350
360
370
380
390
400
410
420
430
440
450
460
470
480
490
500
510
520
530
540
550
560
570
580
590
600
610
620
630
640
650
660
670
680
690
700
710
720
730
740
750
760
770
780
790
800
810
820
830
840
850
860
870
880
890
900
910
920
930
940
950
960
970
980
990
1000
</DataArray>
<DataArray type="Float32" format="ascii">
0
</DataArray>
<DataArray type="Float32" format="ascii">
0
</DataArray>
</Coordinates>
<CellData>
<DataArray Name="h" type="Float32" format="ascii">
4.87358
4.87405
4.87505
4.87668
4.87905
4.8823
4.88668
4.89269
4.90153
4.91642
4.94648
5.01695
5.18922
5.55294
6.07313
6.48807
6.66198
6.6961
6.6847
6.66216
6.63727
6.61252
6.58857
6.56573
6.54406
6.52357
6.50419
6.48586
6.46856
6.45225
6.43699
6.42276
6.40957
6.39739
6.3862
6.37596
6.36662
6.35814
6.35047
6.34356
6.33737
6.33187
6.32705
6.3229
6.31942
6.31658
6.31438
6.3128
6.31181
6.31023
6.30739
6.30613
6.30744
6.30949
6.31229
6.31582
6.32007
6.32502
6.33065
6.33695
6.34392
6.35157
6.35994
6.36906
6.37897
6.3897
6.40124
6.41362
6.42681
6.44082
6.45566
6.47139
6.48808
6.50577
6.52426
6.5426
6.55741
6.55872
6.52101
6.39268
6.11606
5.72186
5.3627
5.14013
5.03148
4.98234
4.95903
4.94707
4.94098
4.93858
4.93874
4.94071
4.94386
4.9477
4.9518
4.9558
4.95942
4.96242
4.96462
4.96583
</DataArray>
<DataArray Name="hu" type="Float32" format="ascii">
-0.0277269
-0.0819732
-0.133319
-0.180588
-0.222725
-0.259199
-0.290509
-0.319739
-0.357094
-0.4333
-0.638898
-1.23483
-2.89226
-6.72589
-12.6543
-17.6672
-19.791
-20.0924
-19.7685
-19.2683
-18.7116
-18.1298
-17.5321
-16.9237
-16.3068
-15.6833
-15.0542
-14.4204
-13.7829
-13.1427
-12.5001
-11.8556
-11.2094
-10.5615
-9.91228
-9.26177
-8.61018
-7.95731
-7.30356
-6.64901
-5.99408
-5.3387
-4.68328
-4.02751
-3.37131
-2.7147
-2.05764
-1.40015
-0.742141
-0.102465
0.550157
1.2318
1.89153
2.55168
3.21229
3.87316
4.53428
5.19552
5.85684
6.51796
7.17864
7.83855
8.49743
9.15501
9.81096
10.4649
11.1165
11.7652
12.4106
13.0522
13.6892
14.3207
14.9452
15.5607
16.1624
16.7365
17.2401
17.5497
17.3529
16.0401
13.0167
8.83752
5.25533
3.1791
2.22539
1.80875
1.59857
1.45935
1.34281
1.23218
1.12133
1.00805
0.891942
0.773502
0.65366
0.5334
0.413525
0.294515
0.176477
0.0588478
</DataArray>
<DataArray Name="B" type="Float32" format="ascii">
-0.4
-0.8
-1.2
-1.6
-2
-2.4
-2.8
-3.2
-3.6
-4
-4.4
-4.8
-5.2
-5.6
-6
-6.4
-6.8
-7.2
-7.6
-8
-8.4
-8.8
-9.2
-9.6
-10
-10.4
-10.8
-11.2
-11.6
-12
-12.4
-12.8
-13.2
-13.6
-14
-14.4
-14.8
-15.2
-15.6
-16
-16.4
-16.8
-17.2
-17.6
-18
-18.4
-18.8
-19.2
-19.6
-20
-9.8
-9.6
-9.4
-9.2
-9
-8.8
-8.6
-8.4
-8.2
-8
-7.8
-7.6
-7.4
-7.2
-7
-6.8
-6.6
-6.4
-6.2
-6
-5.8
-5.6
-5.4
-5.2
-5
-4.8
-4.6
-4.4
-4.2
-4
-3.8
-3.6
-3.4
-3.2
-3
-2.8
-2.6
-2.4
-2.2
-2
-1.8
-1.6
-1.4
-1.2
-1
-0.8
-0.6
-0.4
-0.2
0
</DataArray>
</CellData>
</Piece>
</RectilinearGrid>
</VTKFile>
