<?xml version="1.0"?>
<VTKFile type="RectilinearGrid">
<RectilinearGrid WholeExtent="0 100 0 0 0 0">
<Piece Extent="0 100 0 0 0 0">
<Coordinates>
<DataArray type="Float32" format="ascii">
0
10
20
30
40
50
60
70
80
90
100
110
120
130
140
150
160
170
180
190
200
210
220
230
240
250
260
270
280
290
300
310
320
330
340
350
360
370
380
390
400
410
420
430
440
450
460
470
480
490
500
510
520
530
540
550
560
570
580
590
600
610
620
630
640
650
660
670
680
690
700
710
720
730
740
750
760
770
780
790
800
810
820
830
840
850
860
870
880
890
900
910
920
930
940
950
960
970
980
990
1000
</DataArray>
<DataArray type="Float32" format="ascii">
0
</DataArray>
<DataArray type="Float32" format="ascii">
0
</DataArray>
</Coordinates>
<CellData>
<DataArray Name="h" type="Float32" format="ascii">
6.03126
6.03227
6.03395
6.0361
6.03872
6.04177
6.04527
6.04909
6.05341
6.05781
6.06299
6.06765
6.07399
6.0783
6.08658
6.08928
6.10118
6.09993
6.1184
6.10934
6.13896
6.11659
6.16335
6.12111
6.19146
6.12317
6.22216
6.12422
6.25335
6.12681
6.28234
6.13396
6.30652
6.14812
6.3239
6.17024
6.33322
6.19937
6.33244
6.23405
6.31381
6.27649
6.25545
6.32421
6.14712
6.29226
5.95294
6.02668
5.65531
5.76903
5.4445
5.58846
5.37794
5.47523
5.37289
5.4385
5.39857
5.45609
5.46572
5.53669
5.59128
5.68057
5.75763
5.83989
5.9009
5.94961
5.97801
5.99444
5.99877
5.99652
5.98874
5.97822
5.96571
5.95246
5.9389
5.92556
5.91263
5.90031
5.88868
5.87777
5.86756
5.85803
5.84911
5.84074
5.83286
5.82542
5.81836
5.81165
5.80527
5.79922
5.79352
5.7882
5.78329
5.77884
5.7749
5.77151
5.76872
5.76654
5.76499
5.76416
</DataArray>
<DataArray Name="hu" type="Float32" format="ascii">
0.170982
0.511498
0.850597
1.18966
1.52852
1.86739
2.20574
2.54456
2.88184
3.22144
3.55628
3.89922
4.22789
4.5805
4.89377
5.26987
5.54795
5.97456
6.18091
6.70474
6.781
7.47196
7.33768
8.28433
7.8471
9.14073
8.31844
10.0251
8.77505
10.9074
9.25095
11.7499
9.77981
12.5191
10.3808
13.1967
11.0404
13.7864
11.6919
14.3215
12.1464
14.9148
11.9714
15.6025
10.9065
15.0507
8.31498
10.721
3.86833
6.42049
0.86718
2.98722
0.386505
1.55482
0.209998
0.795355
-0.0518363
0.0379563
-0.738053
-1.14178
-2.0852
-2.88429
-3.89948
-4.71115
-5.43921
-5.90098
-6.19501
-6.29515
-6.28251
-6.17112
-6.00673
-5.80217
-5.57872
-5.34338
-5.10503
-4.86676
-4.63175
-4.40094
-4.17507
-3.95405
-3.73773
-3.52572
-3.31766
-3.11318
-2.91197
-2.71377
-2.51832
-2.32536
-2.13463
-1.94582
-1.7586
-1.5726
-1.38746
-1.20281
-1.01837
-0.833881
-0.649194
-0.464236
-0.279013
-0.0931746
</DataArray>
<DataArray Name="B" type="Float32" format="ascii">
-0.4
-0.8
-1.2
-1.6
-2
-2.4
-2.8
-3.2
-3.6
-4
-4.4
-4.8
-5.2
-5.6
-6
-6.4
-6.8
-7.2
-7.6
-8
-8.4
-8.8
-9.2
-9.6
-10
-10.4
-10.8
-11.2
-11.6
-12
-12.4
-12.8
-13.2
-13.6
-14
-14.4
-14.8
-15.2
-15.6
-16
-16.4
-16.8
-17.2
-17.6
-18
-18.4
-18.8
-19.2
-19.6
-20
-9.8
-9.6
-9.4
-9.2
-9
-8.8
-8.6
-8.4
-8.2
-8
-7.8
-7.6
-7.4
-7.2
-7
-6.8
-6.6
-6.4
-6.2
-6
-5.8
-5.6
-5.4
-5.2
-5
-4.8
-4.6
-4.4
-4.2
-4
-3.8
-3.6
-3.4
-3.2
-3
-2.8
-2.6
-2.4
-2.2
-2
-1.8
-1.6
-1.4
-1.2
-1
-0.8
-0.6
-0.4
-0.2
0
</DataArray>
</CellData>
</Piece>
</RectilinearGrid>
</VTKFile>
