<?xml version="1.0"?>
<VTKFile type="RectilinearGrid">
<RectilinearGrid WholeExtent="0 100 0 0 0 0">
<Piece Extent="0 100 0 0 0 0">
<Coordinates>
<DataArray type="Float32" format="ascii">
0
10
20
30
40
50
60
70
80
90
100
110
120
130
140
150
160
170
180
190
200
210
220
230
240
250
260
270
280
290
300
310
320
330
340
350
360
370
380
390
400
410
420
430
440
450
460
470
480
490
500
510
520
530
540
550
560
570
580
590
600
610
620
630
640
650
660
670
680
690
700
710
720
730
740
750
760
770
780
790
800
810
820
830
840
850
860
870
880
890
900
910
920
930
940
950
960
970
980
990
1000
</DataArray>
<DataArray type="Float32" format="ascii">
0
</DataArray>
<DataArray type="Float32" format="ascii">
0
</DataArray>
</Coordinates>
<CellData>
<DataArray Name="h" type="Float32" format="ascii">
5.14738
5.16604
5.20161
5.25929
5.36336
5.56563
5.91594
6.36351
6.73701
6.93203
6.98742
6.97292
6.92959
6.87505
6.81625
6.75598
6.69548
6.63539
6.57602
6.51759
6.46022
6.404
6.34901
6.29526
6.24278
6.1916
6.14174
6.0932
6.04597
6.00007
5.95549
5.91224
5.87032
5.82972
5.79044
5.75248
5.71584
5.68051
5.64651
5.61382
5.58246
5.55244
5.52376
5.49643
5.47047
5.4459
5.42273
5.401
5.38073
5.36083
5.33777
5.31106
5.28637
5.26407
5.24443
5.22774
5.21425
5.20422
5.19785
5.19532
5.19675
5.20224
5.21184
5.22555
5.24334
5.26514
5.29085
5.32034
5.35346
5.39003
5.42988
5.47282
5.51867
5.56727
5.61851
5.6723
5.72864
5.78761
5.84937
5.91417
5.98228
6.05396
6.12935
6.20842
6.29093
6.37638
6.46406
6.55313
6.64269
6.73181
6.81964
6.90539
6.9882
7.06669
7.13769
7.19272
7.20859
7.12643
6.85593
6.48249
</DataArray>
<DataArray Name="hu" type="Float32" format="ascii">
-0.377006
-1.11546
-1.83798
-2.63515
-3.78706
-5.87935
-9.60382
-14.6946
-19.2993
-21.9544
-22.909
-22.9683
-22.6454
-22.1665
-21.6214
-21.0468
-20.459
-19.8661
-19.2731
-18.683
-18.0974
-17.5176
-16.9447
-16.3793
-15.8222
-15.2741
-14.7354
-14.2063
-13.6873
-13.1789
-12.6811
-12.1944
-11.7188
-11.2547
-10.8022
-10.3613
-9.93194
-9.51419
-9.10795
-8.71307
-8.32914
-7.95589
-7.5928
-7.23942
-6.89508
-6.55903
-6.23047
-5.90855
-5.59225
-5.29771
-5.0129
-4.71007
-4.40615
-4.10025
-3.79055
-3.47529
-3.15282
-2.82166
-2.4806
-2.12876
-1.76548
-1.39032
-1.00299
-0.603332
-0.191336
0.232984
0.669635
1.11867
1.58018
2.05434
2.54135
3.04149
3.55517
4.08292
4.62551
5.18409
5.76039
6.35679
6.97648
7.62327
8.30127
9.0142
9.7647
10.5535
11.379
12.2368
13.1205
14.0215
14.9304
15.838
16.7353
17.6135
18.4617
19.2615
19.9681
20.4572
20.368
18.7397
13.8133
5.0722
</DataArray>
<DataArray Name="B" type="Float32" format="ascii">
-0.4
-0.8
-1.2
-1.6
-2
-2.4
-2.8
-3.2
-3.6
-4
-4.4
-4.8
-5.2
-5.6
-6
-6.4
-6.8
-7.2
-7.6
-8
-8.4
-8.8
-9.2
-9.6
-10
-10.4
-10.8
-11.2
-11.6
-12
-12.4
-12.8
-13.2
-13.6
-14
-14.4
-14.8
-15.2
-15.6
-16
-16.4
-16.8
-17.2
-17.6
-18
-18.4
-18.8
-19.2
-19.6
-20
-9.8
-9.6
-9.4
-9.2
-9
-8.8
-8.6
-8.4
-8.2
-8
-7.8
-7.6
-7.4
-7.2
-7
-6.8
-6.6
-6.4
-6.2
-6
-5.8
-5.6
-5.4
-5.2
-5
-4.8
-4.6
-4.4
-4.2
-4
-3.8
-3.6
-3.4
-3.2
-3
-2.8
-2.6
-2.4
-2.2
-2
-1.8
-1.6
-1.4
-1.2
-1
-0.8
-0.6
-0.4
-0.2
0
</DataArray>
</CellData>
</Piece>
</RectilinearGrid>
</VTKFile>
