<?xml version="1.0"?>
<VTKFile type="RectilinearGrid">
<RectilinearGrid WholeExtent="0 100 0 0 0 0">
<Piece Extent="0 100 0 0 0 0">
<Coordinates>
<DataArray type="Float32" format="ascii">
0
10
20
30
40
50
60
70
80
90
100
110
120
130
140
150
160
170
180
190
200
210
220
230
240
250
260
270
280
290
300
310
320
330
340
350
360
370
380
390
400
410
420
430
440
450
460
470
480
490
500
510
520
530
540
550
560
570
580
590
600
610
620
630
640
650
660
670
680
690
700
710
720
730
740
750
760
770
780
790
800
810
820
830
840
850
860
870
880
890
900
910
920
930
940
950
960
970
980
990
1000
</DataArray>
<DataArray type="Float32" format="ascii">
0
</DataArray>
<DataArray type="Float32" format="ascii">
0
</DataArray>
</Coordinates>
<CellData>
<DataArray Name="h" type="Float32" format="ascii">
5
5
5
5
5
5
5
5
5
5
5
5
5
5
5
5
5
5
5.00002
5.00015
5.00109
5.00592
5.02564
5.09028
5.26093
5.61438
6.15837
6.74666
7.18672
7.424
7.52255
7.5554
7.56398
7.56528
7.56476
7.56386
7.56284
7.5615
7.55863
7.55042
7.52837
7.47894
7.38736
7.24423
7.05037
6.81709
6.56373
6.31533
6.10056
5.93511
5.84083
5.88608
6.08575
6.37341
6.68955
6.97799
7.19977
7.34179
7.41573
7.44624
7.45611
7.4587
7.4593
7.45906
7.45681
7.44711
7.41356
7.31712
7.08916
6.66618
6.09564
5.57024
5.23724
5.08147
5.02356
5.00574
5.00117
5.00019
5.00002
5
5
5
5
5
5
5
5
5
5
5
5
5
5
5
5
5
5
5
5
5
</DataArray>
<DataArray Name="hu" type="Float32" format="ascii">
6.1676e-07
2.97432e-06
3.05845e-06
6.12838e-07
4.56082e-07
1.59144e-07
1.27216e-06
7.48855e-07
1.46705e-06
5.48588e-06
3.22419e-06
1.04737e-06
4.59686e-06
4.06092e-06
3.01815e-06
2.83368e-06
-2.39403e-06
-1.57285e-05
-0.000180558
-0.00174834
-0.0125435
-0.069268
-0.304304
-1.08972
-3.21967
-7.8091
-15.2524
-23.7849
-30.5418
-34.4012
-36.1467
-36.8595
-37.1838
-37.3889
-37.5629
-37.7295
-37.893
-38.0501
-38.1804
-38.2197
-38.0221
-37.3538
-35.9588
-33.6751
-30.5145
-26.6472
-22.314
-17.725
-12.9849
-8.28347
-3.14775
2.87498
8.96392
14.9038
20.2485
24.6321
27.8161
29.7736
30.7295
31.0553
31.0842
31.0097
30.9079
30.7952
30.654
30.4062
29.8195
28.3525
25.1033
19.4057
12.2309
6.09515
2.45096
0.822987
0.234484
0.0565009
0.0113539
0.00186209
0.000240342
2.16666e-05
7.70088e-07
2.14059e-06
4.45225e-06
1.58888e-06
-2.23035e-06
-1.58194e-06
-1.96391e-07
4.83344e-07
-2.48228e-06
-4.08634e-06
-1.62562e-06
-1.02553e-06
2.58931e-07
1.27556e-06
-1.20468e-06
-7.26795e-08
1.02707e-06
9.61017e-07
6.20391e-07
-4.37698e-07
</DataArray>
<DataArray Name="B" type="Float32" format="ascii">
-0.4
-0.8
-1.2
-1.6
-2
-2.4
-2.8
-3.2
-3.6
-4
-4.4
-4.8
-5.2
-5.6
-6
-6.4
-6.8
-7.2
-7.6
-8
-8.4
-8.8
-9.2
-9.6
-10
-10.4
-10.8
-11.2
-11.6
-12
-12.4
-12.8
-13.2
-13.6
-14
-14.4
-14.8
-15.2
-15.6
-16
-16.4
-16.8
-17.2
-17.6
-18
-18.4
-18.8
-19.2
-19.6
-20
-9.8
-9.6
-9.4
-9.2
-9
-8.8
-8.6
-8.4
-8.2
-8
-7.8
-7.6
-7.4
-7.2
-7
-6.8
-6.6
-6.4
-6.2
-6
-5.8
-5.6
-5.4
-5.2
-5
-4.8
-4.6
-4.4
-4.2
-4
-3.8
-3.6
-3.4
-3.2
-3
-2.8
-2.6
-2.4
-2.2
-2
-1.8
-1.6
-1.4
-1.2
-1
-0.8
-0.6
-0.4
-0.2
0
</DataArray>
</CellData>
</Piece>
</RectilinearGrid>
</VTKFile>
