<?xml version="1.0"?>
<VTKFile type="RectilinearGrid">
<RectilinearGrid WholeExtent="0 100 0 0 0 0">
<Piece Extent="0 100 0 0 0 0">
<Coordinates>
<DataArray type="Float32" format="ascii">
0
10
20
30
40
50
60
70
80
90
100
110
120
130
140
150
160
170
180
190
200
210
220
230
240
250
260
270
280
290
300
310
320
330
340
350
360
370
380
390
400
410
420
430
440
450
460
470
480
490
500
510
520
530
540
550
560
570
580
590
600
610
620
630
640
650
660
670
680
690
700
710
720
730
740
750
760
770
780
790
800
810
820
830
840
850
860
870
880
890
900
910
920
930
940
950
960
970
980
990
1000
</DataArray>
<DataArray type="Float32" format="ascii">
0
</DataArray>
<DataArray type="Float32" format="ascii">
0
</DataArray>
</Coordinates>
<CellData>
<DataArray Name="h" type="Float32" format="ascii">
5.16786
5.38698
5.90278
6.65062
7.32151
7.71242
7.88013
7.93591
7.94238
7.9227
7.88149
7.81677
7.72581
7.60771
7.46395
7.29791
7.11413
6.91761
6.71347
6.50675
6.30244
6.10539
5.92032
5.75161
5.60304
5.47735
5.37584
5.29807
5.2419
5.20383
5.17972
5.16549
5.15771
5.15379
5.15199
5.15129
5.15109
5.15109
5.15116
5.15124
5.1513
5.15134
5.15135
5.15134
5.15131
5.15127
5.15121
5.15114
5.15105
5.15097
5.15089
5.15074
5.15053
5.15031
5.15006
5.1498
5.14951
5.14919
5.14884
5.14842
5.14791
5.14725
5.14647
5.14579
5.14597
5.14875
5.15727
5.17616
5.21097
5.26698
5.34784
5.45469
5.58608
5.73851
5.90735
6.08751
6.27398
6.462
6.64712
6.82519
6.99226
7.14462
7.27887
7.39219
7.48248
7.54834
7.5879
7.59528
7.55246
7.41546
7.10686
6.57054
5.92277
5.42179
5.1606
5.05499
5.01762
5.00534
5.00155
5.00051
</DataArray>
<DataArray Name="hu" type="Float32" format="ascii">
-0.685226
-2.945
-7.90237
-15.9161
-24.0245
-29.3047
-31.8477
-32.8931
-33.2521
-33.2399
-32.92
-32.2641
-31.2342
-29.82
-28.0464
-25.9666
-23.649
-21.1672
-18.5931
-15.9948
-13.4364
-10.9779
-8.6754
-6.58019
-4.73554
-3.1729
-1.90726
-0.933685
-0.22719
0.253331
0.557631
0.735482
0.829854
0.873478
0.888625
0.889037
0.882437
0.872833
0.862186
0.851327
0.8406
0.830089
0.8198
0.80973
0.799839
0.790074
0.780435
0.770941
0.761509
0.752386
0.743095
0.73351
0.724415
0.715398
0.706466
0.697588
0.688744
0.679874
0.670839
0.661377
0.651075
0.639473
0.626749
0.615478
0.613984
0.64109
0.730366
0.930681
1.30016
1.89411
2.75192
3.88878
5.29495
6.94092
8.78478
10.7785
12.8717
15.0139
17.1542
19.2411
21.2222
23.0445
24.6571
26.0147
27.0821
27.8337
28.2389
28.2149
27.5212
25.5972
21.5656
15.1505
8.247
3.50705
1.2679
0.419966
0.131442
0.0390055
0.0107753
0.00216332
</DataArray>
<DataArray Name="B" type="Float32" format="ascii">
-0.4
-0.8
-1.2
-1.6
-2
-2.4
-2.8
-3.2
-3.6
-4
-4.4
-4.8
-5.2
-5.6
-6
-6.4
-6.8
-7.2
-7.6
-8
-8.4
-8.8
-9.2
-9.6
-10
-10.4
-10.8
-11.2
-11.6
-12
-12.4
-12.8
-13.2
-13.6
-14
-14.4
-14.8
-15.2
-15.6
-16
-16.4
-16.8
-17.2
-17.6
-18
-18.4
-18.8
-19.2
-19.6
-20
-9.8
-9.6
-9.4
-9.2
-9
-8.8
-8.6
-8.4
-8.2
-8
-7.8
-7.6
-7.4
-7.2
-7
-6.8
-6.6
-6.4
-6.2
-6
-5.8
-5.6
-5.4
-5.2
-5
-4.8
-4.6
-4.4
-4.2
-4
-3.8
-3.6
-3.4
-3.2
-3
-2.8
-2.6
-2.4
-2.2
-2
-1.8
-1.6
-1.4
-1.2
-1
-0.8
-0.6
-0.4
-0.2
0
</DataArray>
</CellData>
</Piece>
</RectilinearGrid>
</VTKFile>
