<?xml version="1.0"?>
<VTKFile type="RectilinearGrid">
<RectilinearGrid WholeExtent="0 100 0 0 0 0">
<Piece Extent="0 100 0 0 0 0">
<Coordinates>
<DataArray type="Float32" format="ascii">
0
10
20
30
40
50
60
70
80
90
100
110
120
130
140
150
160
170
180
190
200
210
220
230
240
250
260
270
280
290
300
310
320
330
340
350
360
370
380
390
400
410
420
430
440
450
460
470
480
490
500
510
520
530
540
550
560
570
580
590
600
610
620
630
640
650
660
670
680
690
700
710
720
730
740
750
760
770
780
790
800
810
820
830
840
850
860
870
880
890
900
910
920
930
940
950
960
970
980
990
1000
</DataArray>
<DataArray type="Float32" format="ascii">
0
</DataArray>
<DataArray type="Float32" format="ascii">
0
</DataArray>
</Coordinates>
<CellData>
<DataArray Name="h" type="Float32" format="ascii">
6.19397
6.1951
6.19668
6.19838
6.20042
6.20324
6.20722
6.21223
6.21792
6.22355
6.22921
6.23444
6.24057
6.24652
6.25468
6.26179
6.27217
6.27953
6.29146
6.29846
6.3122
6.3194
6.33544
6.34305
6.36139
6.36862
6.38983
6.39513
6.4206
6.42202
6.45338
6.44918
6.48746
6.47625
6.52063
6.50114
6.54256
6.52521
6.502
6.28824
5.91493
5.64072
5.50801
5.42548
5.38672
5.36163
5.32314
5.32698
5.26735
5.30532
5.2167
5.26642
5.1896
5.22027
5.18001
5.20881
5.21846
5.30241
5.43735
5.66623
5.91198
6.10744
6.20701
6.23915
6.23203
6.209
6.17852
6.14576
6.11206
6.07856
6.0456
6.01362
5.98281
5.95339
5.92548
5.89916
5.87446
5.8514
5.82997
5.81014
5.79189
5.77519
5.75999
5.74621
5.73375
5.72252
5.7124
5.70331
5.69514
5.68782
5.68129
5.67548
5.67035
5.66584
5.66194
5.65862
5.65588
5.65371
5.65211
5.6512
</DataArray>
<DataArray Name="hu" type="Float32" format="ascii">
0.284679
0.852467
1.42025
1.99075
2.56201
3.13029
3.69216
4.24867
4.80273
5.36117
5.92304
6.49296
7.05776
7.62832
8.17959
8.74552
9.27988
9.85023
10.3733
10.9547
11.4626
12.0491
12.5347
13.1234
13.5849
14.1847
14.6131
15.2433
15.6183
16.3034
16.5988
17.3589
17.5498
18.3902
18.4523
19.3437
19.1727
20.2172
18.9274
16.9281
10.2484
7.25941
4.40093
4.09287
2.80922
3.12319
2.01127
2.53878
1.23736
2.11184
0.569455
1.2934
0.343346
0.663225
0.0229015
-0.0173385
-0.791492
-1.70378
-3.70519
-6.48824
-9.74466
-12.2635
-13.694
-14.2038
-14.2396
-14.0348
-13.7308
-13.373
-12.9899
-12.5894
-12.1781
-11.7585
-11.3332
-10.9041
-10.4733
-10.0427
-9.61396
-9.18834
-8.76676
-8.34962
-7.93682
-7.52781
-7.1219
-6.71837
-6.31651
-5.91564
-5.51514
-5.11445
-4.71306
-4.31055
-3.90659
-3.50096
-3.09359
-2.68454
-2.27399
-1.86221
-1.44953
-1.03625
-0.62261
-0.207876
</DataArray>
<DataArray Name="B" type="Float32" format="ascii">
-0.4
-0.8
-1.2
-1.6
-2
-2.4
-2.8
-3.2
-3.6
-4
-4.4
-4.8
-5.2
-5.6
-6
-6.4
-6.8
-7.2
-7.6
-8
-8.4
-8.8
-9.2
-9.6
-10
-10.4
-10.8
-11.2
-11.6
-12
-12.4
-12.8
-13.2
-13.6
-14
-14.4
-14.8
-15.2
-15.6
-16
-16.4
-16.8
-17.2
-17.6
-18
-18.4
-18.8
-19.2
-19.6
-20
-9.8
-9.6
-9.4
-9.2
-9
-8.8
-8.6
-8.4
-8.2
-8
-7.8
-7.6
-7.4
-7.2
-7
-6.8
-6.6
-6.4
-6.2
-6
-5.8
-5.6
-5.4
-5.2
-5
-4.8
-4.6
-4.4
-4.2
-4
-3.8
-3.6
-3.4
-3.2
-3
-2.8
-2.6
-2.4
-2.2
-2
-1.8
-1.6
-1.4
-1.2
-1
-0.8
-0.6
-0.4
-0.2
0
</DataArray>
</CellData>
</Piece>
</RectilinearGrid>
</VTKFile>
