<?xml version="1.0"?>
<VTKFile type="RectilinearGrid">
<RectilinearGrid WholeExtent="0 100 0 0 0 0">
<Piece Extent="0 100 0 0 0 0">
<Coordinates>
<DataArray type="Float32" format="ascii">
0
10
20
30
40
50
60
70
80
90
100
110
120
130
140
150
160
170
180
190
200
210
220
230
240
250
260
270
280
290
300
310
320
330
340
350
360
370
380
390
400
410
420
430
440
450
460
470
480
490
500
510
520
530
540
550
560
570
580
590
600
610
620
630
640
650
660
670
680
690
700
710
720
730
740
750
760
770
780
790
800
810
820
830
840
850
860
870
880
890
900
910
920
930
940
950
960
970
980
990
1000
</DataArray>
<DataArray type="Float32" format="ascii">
0
</DataArray>
<DataArray type="Float32" format="ascii">
0
</DataArray>
</Coordinates>
<CellData>
<DataArray Name="h" type="Float32" format="ascii">
6.16347
6.1645
6.16615
6.16824
6.17074
6.17371
6.17705
6.18094
6.18501
6.18991
6.19445
6.20064
6.20502
6.21322
6.21613
6.228
6.22691
6.24565
6.2362
6.26717
6.2428
6.2936
6.24567
6.32537
6.24469
6.36178
6.24102
6.40053
6.23752
6.43805
6.23806
6.47015
6.24636
6.49281
6.26461
6.50163
6.29299
6.48599
6.33424
6.41823
6.37574
6.28818
6.19746
5.90221
5.74693
5.52789
5.49851
5.33528
5.42206
5.22016
5.40684
5.17806
5.33399
5.19417
5.28812
5.22203
5.29468
5.29546
5.38933
5.46724
5.60616
5.73239
5.86146
5.94884
6.00889
6.0357
6.04578
6.04141
6.03078
6.01513
5.99767
5.97891
5.96005
5.94135
5.92326
5.9059
5.88944
5.87391
5.85934
5.84572
5.833
5.82114
5.81008
5.79977
5.79015
5.78118
5.77283
5.76508
5.75792
5.75135
5.74536
5.73998
5.73519
5.73101
5.72741
5.7244
5.72195
5.72005
5.71868
5.71791
</DataArray>
<DataArray Name="hu" type="Float32" format="ascii">
0.216239
0.646849
1.07562
1.50397
1.93201
2.35924
2.78655
3.21221
3.63972
4.06289
4.49324
4.91066
5.34975
5.75237
6.21363
6.58144
7.0926
7.38673
7.99892
8.15316
8.9478
8.86432
9.954
9.5095
11.0225
10.0911
12.1418
10.6312
13.278
11.1697
14.3802
11.7533
15.3927
12.4126
16.2693
13.1225
17.0029
13.6975
17.6898
13.6169
18.2485
12.5874
15.2847
7.51339
8.04335
2.50894
4.00853
0.103061
2.70303
-1.32205
2.10768
-1.06497
0.876001
-0.842407
0.169344
-0.907861
-0.607687
-1.58353
-2.06383
-3.44236
-4.74139
-6.42664
-7.76698
-8.85132
-9.42982
-9.70559
-9.70124
-9.55955
-9.30934
-9.01065
-8.67556
-8.32688
-7.96982
-7.61323
-7.25962
-6.91249
-6.573
-6.24234
-5.92071
-5.60815
-5.3042
-5.00822
-4.71935
-4.43661
-4.15898
-3.88539
-3.61488
-3.34654
-3.07957
-2.81332
-2.54725
-2.28098
-2.01428
-1.74703
-1.47924
-1.21099
-0.942393
-0.673587
-0.404672
-0.135104
</DataArray>
<DataArray Name="B" type="Float32" format="ascii">
-0.4
-0.8
-1.2
-1.6
-2
-2.4
-2.8
-3.2
-3.6
-4
-4.4
-4.8
-5.2
-5.6
-6
-6.4
-6.8
-7.2
-7.6
-8
-8.4
-8.8
-9.2
-9.6
-10
-10.4
-10.8
-11.2
-11.6
-12
-12.4
-12.8
-13.2
-13.6
-14
-14.4
-14.8
-15.2
-15.6
-16
-16.4
-16.8
-17.2
-17.6
-18
-18.4
-18.8
-19.2
-19.6
-20
-9.8
-9.6
-9.4
-9.2
-9
-8.8
-8.6
-8.4
-8.2
-8
-7.8
-7.6
-7.4
-7.2
-7
-6.8
-6.6
-6.4
-6.2
-6
-5.8
-5.6
-5.4
-5.2
-5
-4.8
-4.6
-4.4
-4.2
-4
-3.8
-3.6
-3.4
-3.2
-3
-2.8
-2.6
-2.4
-2.2
-2
-1.8
-1.6
-1.4
-1.2
-1
-0.8
-0.6
-0.4
-0.2
0
</DataArray>
</CellData>
</Piece>
</RectilinearGrid>
</VTKFile>
