<?xml version="1.0"?>
<VTKFile type="RectilinearGrid">
<RectilinearGrid WholeExtent="0 100 0 0 0 0">
<Piece Extent="0 100 0 0 0 0">
<Coordinates>
<DataArray type="Float32" format="ascii">
0
10
20
30
40
50
60
70
80
90
100
110
120
130
140
150
160
170
180
190
200
210
220
230
240
250
260
270
280
290
300
310
320
330
340
350
360
370
380
390
400
410
420
430
440
450
460
470
480
490
500
510
520
530
540
550
560
570
580
590
600
610
620
630
640
650
660
670
680
690
700
710
720
730
740
750
760
770
780
790
800
810
820
830
840
850
860
870
880
890
900
910
920
930
940
950
960
970
980
990
1000
</DataArray>
<DataArray type="Float32" format="ascii">
0
</DataArray>
<DataArray type="Float32" format="ascii">
0
</DataArray>
</Coordinates>
<CellData>
<DataArray Name="h" type="Float32" format="ascii">
5.73994
5.74104
5.74286
5.74523
5.74819
5.75171
5.75576
5.7603
5.76531
5.77067
5.77647
5.78249
5.78904
5.79553
5.80297
5.80973
5.81845
5.8251
5.83584
5.84163
5.85544
5.85913
5.87736
5.87727
5.90154
5.89621
5.92808
5.91644
5.95639
5.93853
5.98589
5.96335
6.01596
5.99126
6.04585
6.0223
6.07517
6.05602
6.10336
6.09135
6.12864
6.12685
6.1423
6.16776
6.10929
6.22807
6.02096
5.95944
5.56918
5.4649
5.25739
5.23916
5.15409
5.17001
5.14325
5.16372
5.15927
5.18263
5.19854
5.2421
5.30396
5.41422
5.57361
5.78113
5.99425
6.17115
6.2878
6.35248
6.38168
6.39116
6.39003
6.38378
6.37499
6.36516
6.35497
6.34487
6.33505
6.32569
6.31683
6.30851
6.30071
6.2934
6.28654
6.2801
6.27404
6.26833
6.26296
6.25792
6.25321
6.24885
6.24488
6.24134
6.23825
6.23562
6.23342
6.23162
6.23016
6.229
6.2281
6.22756
</DataArray>
<DataArray Name="hu" type="Float32" format="ascii">
0.197812
0.591217
0.981797
1.37092
1.75866
2.14529
2.53094
2.91585
3.2998
3.68338
4.06573
4.44903
4.8303
5.21602
5.59624
5.98847
6.36508
6.77003
7.1358
7.56342
7.90609
8.37234
8.67456
9.20133
9.44082
10.0491
10.2021
10.9087
10.9632
11.7718
11.7288
12.6247
12.5044
13.4594
13.2962
14.271
14.1016
15.0574
14.9066
15.8137
15.6685
16.5346
16.231
17.3214
16.0026
18.4084
14.7655
14.067
7.48951
5.88444
2.36978
2.06536
0.960454
1.07489
0.645763
0.747496
0.491772
0.461084
0.152114
-0.181761
-0.911183
-2.03775
-3.82424
-6.10555
-8.51936
-10.4799
-11.7318
-12.324
-12.4775
-12.3722
-12.1311
-11.8171
-11.4663
-11.0951
-10.7129
-10.3237
-9.92941
-9.5308
-9.12824
-8.72204
-8.31257
-7.90022
-7.48541
-7.06852
-6.64991
-6.22984
-5.80854
-5.38614
-4.96265
-4.53799
-4.11195
-3.68432
-3.25498
-2.82395
-2.39143
-1.9578
-1.52345
-1.08876
-0.653966
-0.218289
</DataArray>
<DataArray Name="B" type="Float32" format="ascii">
-0.4
-0.8
-1.2
-1.6
-2
-2.4
-2.8
-3.2
-3.6
-4
-4.4
-4.8
-5.2
-5.6
-6
-6.4
-6.8
-7.2
-7.6
-8
-8.4
-8.8
-9.2
-9.6
-10
-10.4
-10.8
-11.2
-11.6
-12
-12.4
-12.8
-13.2
-13.6
-14
-14.4
-14.8
-15.2
-15.6
-16
-16.4
-16.8
-17.2
-17.6
-18
-18.4
-18.8
-19.2
-19.6
-20
-9.8
-9.6
-9.4
-9.2
-9
-8.8
-8.6
-8.4
-8.2
-8
-7.8
-7.6
-7.4
-7.2
-7
-6.8
-6.6
-6.4
-6.2
-6
-5.8
-5.6
-5.4
-5.2
-5
-4.8
-4.6
-4.4
-4.2
-4
-3.8
-3.6
-3.4
-3.2
-3
-2.8
-2.6
-2.4
-2.2
-2
-1.8
-1.6
-1.4
-1.2
-1
-0.8
-0.6
-0.4
-0.2
0
</DataArray>
</CellData>
</Piece>
</RectilinearGrid>
</VTKFile>
