<?xml version="1.0"?>
<VTKFile type="RectilinearGrid">
<RectilinearGrid WholeExtent="0 100 0 0 0 0">
<Piece Extent="0 100 0 0 0 0">
<Coordinates>
<DataArray type="Float32" format="ascii">
0
10
20
30
40
50
60
70
80
90
100
110
120
130
140
150
160
170
180
190
200
210
220
230
240
250
260
270
280
290
300
310
320
330
340
350
360
370
380
390
400
410
420
430
440
450
460
470
480
490
500
510
520
530
540
550
560
570
580
590
600
610
620
630
640
650
660
670
680
690
700
710
720
730
740
750
760
770
780
790
800
810
820
830
840
850
860
870
880
890
900
910
920
930
940
950
960
970
980
990
1000
</DataArray>
<DataArray type="Float32" format="ascii">
0
</DataArray>
<DataArray type="Float32" format="ascii">
0
</DataArray>
</Coordinates>
<CellData>
<DataArray Name="h" type="Float32" format="ascii">
5.81532
5.81629
5.81789
5.82002
5.82275
5.82607
5.82993
5.83432
5.83911
5.84443
5.84998
5.85631
5.86243
5.87004
5.87628
5.8858
5.89114
5.90393
5.9065
5.92504
5.92177
5.94992
5.93633
5.97898
5.9498
6.01195
5.96233
6.04786
5.97554
6.08513
5.99161
6.12099
6.01296
6.15336
6.04116
6.18062
6.07552
6.20076
6.11418
6.20576
6.15998
6.16427
6.21792
6.05927
5.95139
5.58923
5.45373
5.25384
5.25743
5.12201
5.21402
5.08837
5.18031
5.10598
5.16614
5.12602
5.16536
5.14756
5.17665
5.17704
5.20897
5.23672
5.30102
5.39579
5.55171
5.75733
5.9865
6.18224
6.31671
6.39134
6.4267
6.43923
6.44031
6.43555
6.42823
6.41981
6.4112
6.40274
6.39464
6.38695
6.37969
6.37283
6.36635
6.36023
6.35444
6.34896
6.3438
6.33897
6.3345
6.33043
6.32678
6.32359
6.32084
6.31851
6.31654
6.31489
6.31351
6.3124
6.31152
6.31099
</DataArray>
<DataArray Name="hu" type="Float32" format="ascii">
0.205056
0.613329
1.01964
1.42522
1.82971
2.23279
2.6346
3.03478
3.43427
3.83177
4.23053
4.62569
5.02748
5.41937
5.83125
6.21472
6.64956
7.00982
7.49024
7.79806
8.36182
8.56896
9.27286
9.31454
10.2293
10.034
11.23
10.7342
12.2544
11.4308
13.2728
12.1551
14.2492
12.9287
15.1528
13.7553
15.9712
14.597
16.7045
15.2849
17.4542
15.2612
18.3645
14.1698
14.1025
7.2477
6.21302
2.34528
3.05412
0.434142
2.09832
0.302765
1.40171
0.458404
1.12814
0.572378
0.941295
0.599474
0.758639
0.495791
0.441278
0.0462152
-0.457684
-1.49083
-3.06031
-5.29667
-7.75669
-9.88793
-11.2656
-11.9356
-12.1096
-12.0058
-11.7517
-11.4222
-11.052
-10.6604
-10.2559
-9.8437
-9.42608
-9.00467
-8.58035
-8.15375
-7.72531
-7.29533
-6.86402
-6.43153
-5.99789
-5.56297
-5.12656
-4.68837
-4.24819
-3.80595
-3.36176
-2.91596
-2.46899
-2.02125
-1.57301
-1.1244
-0.675512
-0.225508
</DataArray>
<DataArray Name="B" type="Float32" format="ascii">
-0.4
-0.8
-1.2
-1.6
-2
-2.4
-2.8
-3.2
-3.6
-4
-4.4
-4.8
-5.2
-5.6
-6
-6.4
-6.8
-7.2
-7.6
-8
-8.4
-8.8
-9.2
-9.6
-10
-10.4
-10.8
-11.2
-11.6
-12
-12.4
-12.8
-13.2
-13.6
-14
-14.4
-14.8
-15.2
-15.6
-16
-16.4
-16.8
-17.2
-17.6
-18
-18.4
-18.8
-19.2
-19.6
-20
-9.8
-9.6
-9.4
-9.2
-9
-8.8
-8.6
-8.4
-8.2
-8
-7.8
-7.6
-7.4
-7.2
-7
-6.8
-6.6
-6.4
-6.2
-6
-5.8
-5.6
-5.4
-5.2
-5
-4.8
-4.6
-4.4
-4.2
-4
-3.8
-3.6
-3.4
-3.2
-3
-2.8
-2.6
-2.4
-2.2
-2
-1.8
-1.6
-1.4
-1.2
-1
-0.8
-0.6
-0.4
-0.2
0
</DataArray>
</CellData>
</Piece>
</RectilinearGrid>
</VTKFile>
