<?xml version="1.0"?>
<VTKFile type="RectilinearGrid">
<RectilinearGrid WholeExtent="0 100 0 0 0 0">
<Piece Extent="0 100 0 0 0 0">
<Coordinates>
<DataArray type="Float32" format="ascii">
0
10
20
30
40
50
60
70
80
90
100
110
120
130
140
150
160
170
180
190
200
210
220
230
240
250
260
270
280
290
300
310
320
330
340
350
360
370
380
390
400
410
420
430
440
450
460
470
480
490
500
510
520
530
540
550
560
570
580
590
600
610
620
630
640
650
660
670
680
690
700
710
720
730
740
750
760
770
780
790
800
810
820
830
840
850
860
870
880
890
900
910
920
930
940
950
960
970
980
990
1000
</DataArray>
<DataArray type="Float32" format="ascii">
0
</DataArray>
<DataArray type="Float32" format="ascii">
0
</DataArray>
</Coordinates>
<CellData>
<DataArray Name="h" type="Float32" format="ascii">
4.87116
4.87789
4.89403
4.93118
5.03196
5.30593
5.80142
6.19009
6.34665
6.31902
6.33678
6.2809
6.28916
6.2431
6.24392
6.20548
6.20369
6.1707
6.16876
6.14015
6.13915
6.11341
6.11534
6.08927
6.09759
6.06694
6.08481
6.04682
6.07535
6.02944
6.06836
6.01478
6.06325
6.00219
6.05967
5.99173
6.05692
5.9844
6.05311
5.98224
6.04623
5.98634
6.03589
5.99606
6.02305
6.01004
6.00787
6.02919
5.9871
6.05793
5.96129
6.06715
5.97624
6.05572
5.99695
6.05008
6.01496
6.04999
6.03074
6.05418
6.04585
6.06208
6.0609
6.07306
6.07643
6.08665
6.09281
6.10235
6.11023
6.11982
6.12889
6.13895
6.14896
6.15961
6.17044
6.18179
6.1935
6.20576
6.21853
6.23194
6.24602
6.2609
6.27675
6.29383
6.3124
6.33245
6.35185
6.36055
6.32271
6.15513
5.79961
5.40995
5.16674
5.05186
4.99513
4.96085
4.93709
4.92034
4.90948
4.9041
</DataArray>
<DataArray Name="hu" type="Float32" format="ascii">
-0.0088853
-0.0372449
-0.111056
-0.336652
-1.09745
-3.47104
-8.25327
-12.3133
-14.0271
-13.6383
-13.7558
-12.9983
-12.9722
-12.2959
-12.1606
-11.5432
-11.3516
-10.7657
-10.5488
-9.9854
-9.75902
-9.20314
-8.9961
-8.4104
-8.27382
-7.60517
-7.5895
-6.801
-6.92956
-6.00662
-6.28267
-5.22327
-5.64546
-4.44469
-5.01619
-3.67173
-4.38796
-2.91672
-3.73587
-2.20469
-3.03531
-1.54389
-2.29258
-0.906132
-1.55089
-0.230261
-0.878243
0.561088
-0.363306
1.55911
0.155391
2.03851
1.2152
2.52941
2.11121
3.08101
2.95421
3.68726
3.75084
4.33062
4.52038
5.0024
5.27085
5.69424
6.00874
6.39971
6.73835
7.11211
7.46183
7.82658
8.1806
8.54108
8.89657
9.25479
9.61045
9.96676
10.3211
10.6745
11.0258
11.3756
11.7236
12.0708
12.4184
12.7697
13.1282
13.4931
13.8394
14.0486
13.7227
11.9701
8.37826
4.72908
2.62449
1.68859
1.2332
0.939641
0.703405
0.491707
0.291805
0.0968868
</DataArray>
<DataArray Name="B" type="Float32" format="ascii">
-0.4
-0.8
-1.2
-1.6
-2
-2.4
-2.8
-3.2
-3.6
-4
-4.4
-4.8
-5.2
-5.6
-6
-6.4
-6.8
-7.2
-7.6
-8
-8.4
-8.8
-9.2
-9.6
-10
-10.4
-10.8
-11.2
-11.6
-12
-12.4
-12.8
-13.2
-13.6
-14
-14.4
-14.8
-15.2
-15.6
-16
-16.4
-16.8
-17.2
-17.6
-18
-18.4
-18.8
-19.2
-19.6
-20
-9.8
-9.6
-9.4
-9.2
-9
-8.8
-8.6
-8.4
-8.2
-8
-7.8
-7.6
-7.4
-7.2
-7
-6.8
-6.6
-6.4
-6.2
-6
-5.8
-5.6
-5.4
-5.2
-5
-4.8
-4.6
-4.4
-4.2
-4
-3.8
-3.6
-3.4
-3.2
-3
-2.8
-2.6
-2.4
-2.2
-2
-1.8
-1.6
-1.4
-1.2
-1
-0.8
-0.6
-0.4
-0.2
0
</DataArray>
</CellData>
</Piece>
</RectilinearGrid>
</VTKFile>
