<?xml version="1.0"?>
<VTKFile type="RectilinearGrid">
<RectilinearGrid WholeExtent="0 100 0 0 0 0">
<Piece Extent="0 100 0 0 0 0">
<Coordinates>
<DataArray type="Float32" format="ascii">
0
10
20
30
40
50
60
70
80
90
100
110
120
130
140
150
160
170
180
190
200
210
220
230
240
250
260
270
280
290
300
310
320
330
340
350
360
370
380
390
400
410
420
430
440
450
460
470
480
490
500
510
520
530
540
550
560
570
580
590
600
610
620
630
640
650
660
670
680
690
700
710
720
730
740
750
760
770
780
790
800
810
820
830
840
850
860
870
880
890
900
910
920
930
940
950
960
970
980
990
1000
</DataArray>
<DataArray type="Float32" format="ascii">
0
</DataArray>
<DataArray type="Float32" format="ascii">
0
</DataArray>
</Coordinates>
<CellData>
<DataArray Name="h" type="Float32" format="ascii">
8.80386
8.66601
8.29405
7.67534
7.07727
6.71272
6.53348
6.43824
6.37344
6.31937
6.26969
6.22243
6.17697
6.13313
6.09083
6.05001
6.01062
5.97263
5.93605
5.90089
5.86715
5.83482
5.80387
5.77428
5.74603
5.71913
5.69358
5.66935
5.64645
5.62481
5.60441
5.58519
5.56713
5.55019
5.53435
5.51963
5.50595
5.49336
5.48177
5.47116
5.4615
5.45274
5.44486
5.43784
5.43165
5.4263
5.42175
5.41799
5.41498
5.41198
5.40819
5.40534
5.40455
5.40484
5.40627
5.4089
5.4128
5.41804
5.42467
5.43276
5.44234
5.45349
5.46626
5.4807
5.49688
5.51484
5.53467
5.55641
5.58012
5.60582
5.63355
5.66328
5.69499
5.72861
5.76405
5.8012
5.83995
5.88017
5.92169
5.96439
6.00809
6.05268
6.09805
6.14411
6.19076
6.23792
6.28555
6.33363
6.38212
6.43098
6.48015
6.52951
6.57871
6.62654
6.6695
6.69701
6.67985
6.55313
6.25721
5.94351
</DataArray>
<DataArray Name="hu" type="Float32" format="ascii">
0.244487
0.0375266
-2.28417
-6.77398
-10.8962
-12.9775
-13.5822
-13.5462
-13.2868
-12.9586
-12.6124
-12.2645
-11.9198
-11.5794
-11.2432
-10.9111
-10.5831
-10.2589
-9.9381
-9.62004
-9.3042
-8.99016
-8.6776
-8.36603
-8.05512
-7.7441
-7.43246
-7.11934
-6.80471
-6.48794
-6.16944
-5.84861
-5.52553
-5.19965
-4.87067
-4.53863
-4.20249
-3.86381
-3.52141
-3.17665
-2.82937
-2.48023
-2.12915
-1.77635
-1.42158
-1.06501
-0.706288
-0.345564
0.0169244
0.369381
0.729186
1.10772
1.47478
1.84187
2.20862
2.57475
2.9402
3.30465
3.66765
4.02877
4.38731
4.74247
5.09342
5.43927
5.7793
6.11311
6.44046
6.76129
7.07552
7.38313
7.68419
7.97899
8.26804
8.55214
8.8322
9.10927
9.38446
9.6589
9.93385
10.2105
10.4901
10.7735
11.0616
11.3549
11.6543
11.96
12.272
12.5901
12.9137
13.2425
13.5754
13.9098
14.2397
14.5484
14.7887
14.8263
14.2949
12.379
8.26171
2.77345
</DataArray>
<DataArray Name="B" type="Float32" format="ascii">
-0.4
-0.8
-1.2
-1.6
-2
-2.4
-2.8
-3.2
-3.6
-4
-4.4
-4.8
-5.2
-5.6
-6
-6.4
-6.8
-7.2
-7.6
-8
-8.4
-8.8
-9.2
-9.6
-10
-10.4
-10.8
-11.2
-11.6
-12
-12.4
-12.8
-13.2
-13.6
-14
-14.4
-14.8
-15.2
-15.6
-16
-16.4
-16.8
-17.2
-17.6
-18
-18.4
-18.8
-19.2
-19.6
-20
-9.8
-9.6
-9.4
-9.2
-9
-8.8
-8.6
-8.4
-8.2
-8
-7.8
-7.6
-7.4
-7.2
-7
-6.8
-6.6
-6.4
-6.2
-6
-5.8
-5.6
-5.4
-5.2
-5
-4.8
-4.6
-4.4
-4.2
-4
-3.8
-3.6
-3.4
-3.2
-3
-2.8
-2.6
-2.4
-2.2
-2
-1.8
-1.6
-1.4
-1.2
-1
-0.8
-0.6
-0.4
-0.2
0
</DataArray>
</CellData>
</Piece>
</RectilinearGrid>
</VTKFile>
