<?xml version="1.0"?>
<VTKFile type="RectilinearGrid">
<RectilinearGrid WholeExtent="0 100 0 0 0 0">
<Piece Extent="0 100 0 0 0 0">
<Coordinates>
<DataArray type="Float32" format="ascii">
0
10
20
30
40
50
60
70
80
90
100
110
120
130
140
150
160
170
180
190
200
210
220
230
240
250
260
270
280
290
300
310
320
330
340
350
360
370
380
390
400
410
420
430
440
450
460
470
480
490
500
510
520
530
540
550
560
570
580
590
600
610
620
630
640
650
660
670
680
690
700
710
720
730
740
750
760
770
780
790
800
810
820
830
840
850
860
870
880
890
900
910
920
930
940
950
960
970
980
990
1000
</DataArray>
<DataArray type="Float32" format="ascii">
0
</DataArray>
<DataArray type="Float32" format="ascii">
0
</DataArray>
</Coordinates>
<CellData>
<DataArray Name="h" type="Float32" format="ascii">
7.52959
7.51961
7.50225
7.48168
7.4632
7.45175
7.45142
7.46492
7.49288
7.53337
7.58171
7.63015
7.66665
7.67099
7.60642
7.41117
7.02199
6.47163
5.93533
5.56067
5.35218
5.24953
5.20181
5.18026
5.17078
5.16677
5.16518
5.16464
5.16455
5.16463
5.16477
5.16491
5.16505
5.16516
5.16526
5.16533
5.16538
5.16542
5.16543
5.16543
5.16541
5.16538
5.16534
5.16529
5.16522
5.16515
5.16506
5.16496
5.16485
5.16474
5.1646
5.16439
5.16414
5.16386
5.16356
5.16324
5.1629
5.16254
5.16216
5.16176
5.16133
5.16088
5.16041
5.15992
5.1594
5.15886
5.15829
5.15769
5.15707
5.15642
5.15575
5.15505
5.15432
5.15356
5.15276
5.15192
5.15103
5.15013
5.14932
5.14885
5.14931
5.15184
5.15858
5.17354
5.20447
5.26761
5.39772
5.66098
6.13654
6.80679
7.47763
7.96494
8.26097
8.43966
8.55802
8.64425
8.70993
8.75898
8.79207
8.80886
</DataArray>
<DataArray Name="hu" type="Float32" format="ascii">
1.71137
5.10851
8.44903
11.7075
14.8461
17.8262
20.6111
23.1686
25.4745
27.512
29.2665
30.7073
31.7511
32.1889
31.5566
29.0367
23.8765
16.7662
10.1142
5.6252
3.17127
1.96386
1.39515
1.13166
1.01023
0.954027
0.927396
0.913963
0.906282
0.901086
0.896895
0.893045
0.88924
0.885415
0.881531
0.87748
0.87333
0.869063
0.864718
0.860308
0.85579
0.851183
0.846538
0.841774
0.836953
0.832086
0.827142
0.822176
0.817164
0.812206
0.806973
0.801545
0.796358
0.791148
0.785932
0.780717
0.775528
0.770355
0.765197
0.760053
0.754927
0.749833
0.744769
0.739732
0.734736
0.729782
0.724867
0.719981
0.715116
0.710275
0.705449
0.700625
0.695804
0.690991
0.686193
0.681438
0.676815
0.672629
0.669683
0.669804
0.676489
0.695131
0.731542
0.785407
0.831733
0.775698
0.356173
-0.998509
-4.10781
-9.07096
-14.0903
-17.0194
-17.5463
-16.4951
-14.6043
-12.2799
-9.71947
-7.02236
-4.24479
-1.42068
</DataArray>
<DataArray Name="B" type="Float32" format="ascii">
-0.4
-0.8
-1.2
-1.6
-2
-2.4
-2.8
-3.2
-3.6
-4
-4.4
-4.8
-5.2
-5.6
-6
-6.4
-6.8
-7.2
-7.6
-8
-8.4
-8.8
-9.2
-9.6
-10
-10.4
-10.8
-11.2
-11.6
-12
-12.4
-12.8
-13.2
-13.6
-14
-14.4
-14.8
-15.2
-15.6
-16
-16.4
-16.8
-17.2
-17.6
-18
-18.4
-18.8
-19.2
-19.6
-20
-9.8
-9.6
-9.4
-9.2
-9
-8.8
-8.6
-8.4
-8.2
-8
-7.8
-7.6
-7.4
-7.2
-7
-6.8
-6.6
-6.4
-6.2
-6
-5.8
-5.6
-5.4
-5.2
-5
-4.8
-4.6
-4.4
-4.2
-4
-3.8
-3.6
-3.4
-3.2
-3
-2.8
-2.6
-2.4
-2.2
-2
-1.8
-1.6
-1.4
-1.2
-1
-0.8
-0.6
-0.4
-0.2
0
</DataArray>
</CellData>
</Piece>
</RectilinearGrid>
</VTKFile>
