<?xml version="1.0"?>
<VTKFile type="RectilinearGrid">
<RectilinearGrid WholeExtent="0 100 0 0 0 0">
<Piece Extent="0 100 0 0 0 0">
<Coordinates>
<DataArray type="Float32" format="ascii">
0
10
20
30
40
50
60
70
80
90
100
110
120
130
140
150
160
170
180
190
200
210
220
230
240
250
260
270
280
290
300
310
320
330
340
350
360
370
380
390
400
410
420
430
440
450
460
470
480
490
500
510
520
530
540
550
560
570
580
590
600
610
620
630
640
650
660
670
680
690
700
710
720
730
740
750
760
770
780
790
800
810
820
830
840
850
860
870
880
890
900
910
920
930
940
950
960
970
980
990
1000
</DataArray>
<DataArray type="Float32" format="ascii">
0
</DataArray>
<DataArray type="Float32" format="ascii">
0
</DataArray>
</Coordinates>
<CellData>
<DataArray Name="h" type="Float32" format="ascii">
9.16921
9.16904
9.16793
9.16504
9.16002
9.15287
9.14329
9.13025
9.11245
9.08985
9.0648
9.04083
9.02001
9.00253
8.98804
8.97599
8.96589
8.95754
8.95086
8.94542
8.93979
8.93506
8.93558
8.94364
8.96162
8.99107
9.03187
9.08224
9.13824
9.18214
9.21558
9.24852
9.28285
9.31788
9.35263
9.38563
9.41474
9.43726
9.45073
9.45525
9.45514
9.45509
9.45511
9.46132
9.66981
9.82874
10.1658
9.73593
9.87815
9.68412
9.61534
9.53487
9.50802
9.49487
9.49219
9.49049
9.49022
9.48952
9.48819
9.48683
9.48399
9.48122
9.21093
9.16089
9.12962
9.09073
9.05031
9.01479
8.98555
8.9632
8.94694
8.93632
8.92973
8.92633
8.92478
8.92472
8.92535
8.92683
8.92895
8.93208
8.93596
8.94094
8.94692
8.95409
8.96218
8.97185
8.984
8.99997
9.0205
9.04525
9.07218
9.09842
9.12127
9.13938
9.1525
9.16098
9.16539
9.16684
9.16705
9.16712
</DataArray>
<DataArray Name="hu" type="Float32" format="ascii">
0.00872164
0.0299716
0.0617306
0.109732
0.173309
0.24317
0.305124
0.343079
0.344308
0.311082
0.268964
0.251878
0.275919
0.335073
0.415763
0.502414
0.581827
0.646958
0.69597
0.72692
0.74371
0.755278
0.772561
0.810634
0.880935
0.98953
1.13964
1.33345
1.56239
1.80332
2.08328
2.40481
2.74112
3.08585
3.4294
3.75714
4.04765
4.27304
4.40783
4.45237
4.45052
4.44933
4.4489
4.39116
2.43127
0.844867
-2.73989
0.94976
-1.98757
-2.35042
-3.866
-4.38381
-4.70359
-4.80615
-4.83338
-4.85267
-4.84724
-4.86511
-4.8633
-4.89165
-4.90058
-4.94391
-2.32926
-1.94317
-1.76226
-1.52079
-1.28103
-1.0823
-0.938841
-0.841634
-0.784464
-0.751625
-0.737174
-0.72887
-0.724438
-0.71671
-0.707729
-0.692753
-0.672837
-0.643536
-0.607543
-0.561101
-0.505552
-0.438568
-0.365836
-0.290381
-0.224249
-0.177345
-0.157499
-0.159679
-0.169957
-0.16838
-0.145819
-0.104408
-0.0577604
-0.0186145
0.00211094
0.00604423
0.0027244
0.0010285
</DataArray>
<DataArray Name="B" type="Float32" format="ascii">
0
0
0
0
0
0
0
0
0
0
0
0
0
0
0
0
0
0
0
0
5
5
5
5
5
5
5
5
5
0
0
0
0
0
0
0
0
0
0
0
0
0
0
0
0
0
0
0
0
0
0
0
0
0
0
0
0
0
0
0
0
0
0
0
0
0
0
0
0
0
0
0
0
0
0
0
0
0
0
0
0
0
0
0
0
0
0
0
0
0
0
0
0
0
0
0
0
0
0
0
</DataArray>
</CellData>
</Piece>
</RectilinearGrid>
</VTKFile>
