<?xml version="1.0"?>
<VTKFile type="RectilinearGrid">
<RectilinearGrid WholeExtent="0 100 0 0 0 0">
<Piece Extent="0 100 0 0 0 0">
<Coordinates>
<DataArray type="Float32" format="ascii">
0
10
20
30
40
50
60
70
80
90
100
110
120
130
140
150
160
170
180
190
200
210
220
230
240
250
260
270
280
290
300
310
320
330
340
350
360
370
380
390
400
410
420
430
440
450
460
470
480
490
500
510
520
530
540
550
560
570
580
590
600
610
620
630
640
650
660
670
680
690
700
710
720
730
740
750
760
770
780
790
800
810
820
830
840
850
860
870
880
890
900
910
920
930
940
950
960
970
980
990
1000
</DataArray>
<DataArray type="Float32" format="ascii">
0
</DataArray>
<DataArray type="Float32" format="ascii">
0
</DataArray>
</Coordinates>
<CellData>
<DataArray Name="h" type="Float32" format="ascii">
14.9842
14.9687
14.9422
14.9003
14.8388
14.755
14.6479
14.5193
14.3736
14.2173
14.0591
13.9081
13.7735
13.6626
13.5793
13.5235
13.491
13.4753
13.4698
13.4693
13.4706
13.4722
13.4737
13.475
13.4761
13.477
13.4777
13.4784
13.4789
13.4794
13.4797
13.4801
13.4803
13.4806
13.4807
13.4809
13.4809
13.4806
13.4795
13.4758
13.4654
13.4372
13.3667
13.2027
12.8616
12.2702
11.5006
10.8125
10.4006
10.2643
10.3631
10.7195
11.3513
12.1195
12.7676
13.1661
13.3625
13.447
13.4803
13.4925
13.4966
13.4979
13.4982
13.4982
13.4981
13.4979
13.4977
13.4975
13.4973
13.497
13.4966
13.4962
13.4958
13.4952
13.4946
13.4938
13.4928
13.4917
13.4906
13.4899
13.4911
13.4972
13.5132
13.5453
13.6
13.6811
13.7893
13.9208
14.0688
14.2247
14.379
14.5235
14.6511
14.7575
14.8407
14.9017
14.9432
14.9694
14.9846
14.9928
</DataArray>
<DataArray Name="hu" type="Float32" format="ascii">
30.1597
30.319
30.5901
31.0165
31.6374
32.4779
33.5402
34.7995
36.2055
37.6877
39.1636
40.5482
41.7643
42.7546
43.4913
43.9823
44.2674
44.4046
44.4527
44.4569
44.4448
44.4294
44.4153
44.4032
44.3929
44.3839
44.3762
44.3693
44.3632
44.3577
44.3527
44.348
44.3435
44.3392
44.3349
44.3303
44.3245
44.3147
44.292
44.2307
44.0634
43.6233
42.5319
40.0337
34.9825
26.6734
16.6519
8.29802
3.1752
0.161478
-2.67102
-7.21697
-14.7908
-24.5436
-33.3854
-39.1569
-42.1121
-43.4101
-43.9279
-44.1207
-44.1886
-44.2119
-44.2205
-44.2246
-44.2274
-44.23
-44.2326
-44.2353
-44.2383
-44.2414
-44.245
-44.249
-44.2536
-44.2589
-44.2651
-44.2723
-44.2808
-44.2907
-44.301
-44.3072
-44.2966
-44.2427
-44.1021
-43.8186
-43.336
-42.6147
-41.645
-40.4513
-39.0879
-37.6294
-36.1604
-34.7638
-33.5112
-32.4544
-31.6188
-31.0025
-30.5805
-30.3132
-30.1568
-30.0726
</DataArray>
</CellData>
</Piece>
</RectilinearGrid>
</VTKFile>
