<?xml version="1.0"?>
<VTKFile type="RectilinearGrid">
<RectilinearGrid WholeExtent="0 100 0 0 0 0">
<Piece Extent="0 100 0 0 0 0">
<Coordinates>
<DataArray type="Float32" format="ascii">
0
10
20
30
40
50
60
70
80
90
100
110
120
130
140
150
160
170
180
190
200
210
220
230
240
250
260
270
280
290
300
310
320
330
340
350
360
370
380
390
400
410
420
430
440
450
460
470
480
490
500
510
520
530
540
550
560
570
580
590
600
610
620
630
640
650
660
670
680
690
700
710
720
730
740
750
760
770
780
790
800
810
820
830
840
850
860
870
880
890
900
910
920
930
940
950
960
970
980
990
1000
</DataArray>
<DataArray type="Float32" format="ascii">
0
</DataArray>
<DataArray type="Float32" format="ascii">
0
</DataArray>
</Coordinates>
<CellData>
<DataArray Name="h" type="Float32" format="ascii">
15
15
15
15
15
14.9999
14.9997
14.9988
14.9961
14.9889
14.9721
14.9375
14.8749
14.7743
14.6303
14.4455
14.2321
14.0109
13.8076
13.6458
13.5385
13.4829
13.4631
13.4608
13.4635
13.4666
13.4689
13.4706
13.4718
13.4723
13.4706
13.461
13.4275
13.3302
13.0909
12.6049
11.8515
11.0435
10.4665
10.1741
10.0569
10.0167
10.0044
10.001
10.0002
10
10
10
10
10
10
10
10
10
10.0002
10.001
10.0041
10.0156
10.0528
10.1603
10.4276
10.9617
11.7423
12.5226
13.0583
13.3301
13.441
13.4791
13.49
13.4921
13.4919
13.491
13.4897
13.488
13.4857
13.4839
13.4875
13.5081
13.5635
13.6686
13.8267
14.0257
14.243
14.4534
14.636
14.7783
14.8775
14.9391
14.973
14.9893
14.9963
14.9988
14.9997
14.9999
15
15
15
15
15
15
</DataArray>
<DataArray Name="hu" type="Float32" format="ascii">
30
30
30
30
30.0002
30.0008
30.0034
30.0123
30.0397
30.1131
30.2847
30.6368
31.2716
32.2814
33.7067
35.5027
37.5319
39.5866
41.4345
42.8799
43.8274
44.3161
44.4891
44.5081
44.4811
44.4516
44.4276
44.4079
44.3897
44.3662
44.3117
44.1389
43.5958
42.0785
38.4477
31.3942
21.2366
11.3127
4.83055
1.75504
0.567036
0.16548
0.0436134
0.0103195
0.00217609
0.000405851
6.6158e-05
7.83884e-06
1.81683e-07
2.75499e-09
-1.2898e-07
-6.87126e-06
-5.9427e-05
-0.000382128
-0.00206315
-0.00975479
-0.041021
-0.154646
-0.525825
-1.61354
-4.41092
-10.3509
-19.7784
-30.0455
-37.6343
-41.6917
-43.4035
-44.0099
-44.1969
-44.2506
-44.2697
-44.2824
-44.296
-44.3129
-44.3339
-44.3503
-44.3194
-44.137
-43.6479
-42.7133
-41.2921
-39.4723
-37.4429
-35.4339
-33.654
-32.2427
-31.2453
-30.6207
-30.2761
-30.1091
-30.0382
-30.0118
-30.0032
-30.0008
-30.0002
-30
-30
-30
-30
-30
</DataArray>
</CellData>
</Piece>
</RectilinearGrid>
</VTKFile>
