<?xml version="1.0"?>
<VTKFile type="RectilinearGrid">
<RectilinearGrid WholeExtent="0 100 0 0 0 0">
<Piece Extent="0 100 0 0 0 0">
<Coordinates>
<DataArray type="Float32" format="ascii">
0
10
20
30
40
50
60
70
80
90
100
110
120
130
140
150
160
170
180
190
200
210
220
230
240
250
260
270
280
290
300
310
320
330
340
350
360
370
380
390
400
410
420
430
440
450
460
470
480
490
500
510
520
530
540
550
560
570
580
590
600
610
620
630
640
650
660
670
680
690
700
710
720
730
740
750
760
770
780
790
800
810
820
830
840
850
860
870
880
890
900
910
920
930
940
950
960
970
980
990
1000
</DataArray>
<DataArray type="Float32" format="ascii">
0
</DataArray>
<DataArray type="Float32" format="ascii">
0
</DataArray>
</Coordinates>
<CellData>
<DataArray Name="h" type="Float32" format="ascii">
15
15
15
15
15
15
15
15
15
15
15
15
15
15
15
15
15
14.9999
14.9988
14.9912
14.9555
14.8364
14.5562
14.0994
13.6305
13.3018
12.7897
11.7281
10.6885
10.1767
10.0313
10.004
10.0004
10
10
10
10
10
10
10
10
10
10
10
10
10
10
10
10
10
10
10
10
10
10
10
10
10
10
10
10
10
10
10
10
10
10.0003
10.0038
10.03
10.1687
10.6572
11.6713
12.7671
13.3271
13.6687
14.1283
14.5731
14.844
14.958
14.9918
14.9989
14.9999
15
15
15
15
15
15
15
15
15
15
15
15
15
15
15
15
15
15
</DataArray>
<DataArray Name="hu" type="Float32" format="ascii">
30
30
30
30
30
30
30
30
30
30
30
30
30
30
30
30
30.0001
30.0012
30.0126
30.0893
30.4514
31.6451
34.3788
38.6474
42.8939
43.016
34.8044
20.0577
7.38076
1.79553
0.311708
0.0392341
0.00348385
0.00020588
7.07002e-06
3.06926e-08
0
0
0
0
0
0
0
0
0
0
0
0
0
0
0
0
0
0
0
0
0
0
0
0
0
0
0
-3.03543e-08
-7.02003e-06
-0.000198948
-0.00335743
-0.0377245
-0.298599
-1.71198
-7.02083
-19.2708
-34.1059
-42.6761
-42.6397
-38.4138
-34.2226
-31.57
-30.4263
-30.0835
-30.0117
-30.0011
-30.0001
-30
-30
-30
-30
-30
-30
-30
-30
-30
-30
-30
-30
-30
-30
-30
-30
-30
</DataArray>
</CellData>
</Piece>
</RectilinearGrid>
</VTKFile>
