<?xml version="1.0"?>
<VTKFile type="RectilinearGrid">
<RectilinearGrid WholeExtent="0 100 0 0 0 0">
<Piece Extent="0 100 0 0 0 0">
<Coordinates>
<DataArray type="Float32" format="ascii">
0
10
20
30
40
50
60
70
80
90
100
110
120
130
140
150
160
170
180
190
200
210
220
230
240
250
260
270
280
290
300
310
320
330
340
350
360
370
380
390
400
410
420
430
440
450
460
470
480
490
500
510
520
530
540
550
560
570
580
590
600
610
620
630
640
650
660
670
680
690
700
710
720
730
740
750
760
770
780
790
800
810
820
830
840
850
860
870
880
890
900
910
920
930
940
950
960
970
980
990
1000
</DataArray>
<DataArray type="Float32" format="ascii">
0
</DataArray>
<DataArray type="Float32" format="ascii">
0
</DataArray>
</Coordinates>
<CellData>
<DataArray Name="h" type="Float32" format="ascii">
13.9008
13.8033
13.7172
13.6444
13.5861
13.5422
13.5114
13.4916
13.4802
13.4746
13.4727
13.4728
13.4737
13.475
13.4762
13.4773
13.4783
13.4791
13.4798
13.4803
13.4808
13.4812
13.4816
13.4819
13.4822
13.4824
13.4826
13.4829
13.4832
13.4837
13.4849
13.4879
13.4958
13.5163
13.5677
13.6895
13.954
14.4498
15.191
16.0184
16.6983
17.1287
17.3547
17.4597
17.5046
17.5225
17.5293
17.5318
17.5325
17.5326
17.5324
17.5316
17.5294
17.5236
17.5086
17.471
17.382
17.1855
16.7964
16.1506
15.3236
14.5519
14.0208
13.7311
13.5953
13.5372
13.5137
13.5047
13.5013
13.5
13.4995
13.4992
13.499
13.4988
13.4987
13.4985
13.4982
13.498
13.4977
13.4974
13.497
13.4966
13.496
13.4954
13.4947
13.4939
13.4931
13.4927
13.4932
13.4957
13.5017
13.5133
13.5329
13.5631
13.6058
13.6625
13.7333
13.8173
13.9126
14.0166
</DataArray>
<DataArray Name="hu" type="Float32" format="ascii">
40.3528
41.2608
42.0584
42.7301
43.2691
43.6783
43.97
44.1635
44.2817
44.347
44.3787
44.391
44.3933
44.3913
44.3876
44.3835
44.3794
44.3755
44.3718
44.3682
44.3648
44.3616
44.3586
44.3558
44.3531
44.3506
44.3482
44.3457
44.3426
44.3377
44.3272
44.301
44.2329
44.0568
43.614
42.5484
40.1588
35.4239
27.793
18.5757
10.4794
5.11009
2.21199
0.845003
0.254299
0.0138908
-0.0803954
-0.117494
-0.133629
-0.143057
-0.152188
-0.166812
-0.198772
-0.277805
-0.477501
-0.970252
-2.12872
-4.6537
-9.52534
-17.2515
-26.5023
-34.4805
-39.5788
-42.2084
-43.4013
-43.9031
-44.1038
-44.1812
-44.2104
-44.2216
-44.2262
-44.2286
-44.2304
-44.2321
-44.2338
-44.2356
-44.2375
-44.2397
-44.242
-44.2445
-44.2473
-44.2504
-44.2537
-44.2572
-44.2607
-44.2638
-44.2652
-44.262
-44.2489
-44.2168
-44.152
-44.0361
-43.8473
-43.5636
-43.1659
-42.6416
-41.9866
-41.2065
-40.3154
-39.3347
</DataArray>
</CellData>
</Piece>
</RectilinearGrid>
</VTKFile>
