<?xml version="1.0"?>
<VTKFile type="RectilinearGrid">
<RectilinearGrid WholeExtent="0 100 0 0 0 0">
<Piece Extent="0 100 0 0 0 0">
<Coordinates>
<DataArray type="Float32" format="ascii">
0
10
20
30
40
50
60
70
80
90
100
110
120
130
140
150
160
170
180
190
200
210
220
230
240
250
260
270
280
290
300
310
320
330
340
350
360
370
380
390
400
410
420
430
440
450
460
470
480
490
500
510
520
530
540
550
560
570
580
590
600
610
620
630
640
650
660
670
680
690
700
710
720
730
740
750
760
770
780
790
800
810
820
830
840
850
860
870
880
890
900
910
920
930
940
950
960
970
980
990
1000
</DataArray>
<DataArray type="Float32" format="ascii">
0
</DataArray>
<DataArray type="Float32" format="ascii">
0
</DataArray>
</Coordinates>
<CellData>
<DataArray Name="h" type="Float32" format="ascii">
14.9693
14.9441
14.9043
14.8462
14.7671
14.6658
14.5437
14.4044
14.2539
14.0995
13.9499
13.8134
13.6975
13.6069
13.5428
13.5027
13.4813
13.4721
13.4697
13.4703
13.4718
13.4733
13.4747
13.4758
13.4768
13.4776
13.4783
13.4788
13.4793
13.4797
13.4801
13.4804
13.4807
13.4809
13.4811
13.4812
13.4813
13.4813
13.4809
13.4797
13.476
13.4655
13.4378
13.3688
13.2093
12.8785
12.3061
11.5682
10.9455
10.6877
10.8627
11.4179
12.1527
12.7829
13.1718
13.3641
13.4472
13.4802
13.4925
13.4968
13.4981
13.4985
13.4985
13.4984
13.4983
13.4981
13.4979
13.4977
13.4975
13.4972
13.4969
13.4966
13.4961
13.4956
13.495
13.4943
13.4935
13.4925
13.4914
13.4905
13.4905
13.4935
13.5032
13.5247
13.5641
13.6266
13.7149
13.8279
13.9614
14.1083
14.2605
14.4094
14.5474
14.6687
14.7694
14.848
14.9057
14.945
14.97
14.9847
</DataArray>
<DataArray Name="hu" type="Float32" format="ascii">
30.3099
30.5694
30.9746
31.5624
32.3576
33.3644
34.5632
35.9105
37.3443
38.7899
40.1688
41.4071
42.4457
43.2492
43.8136
44.1655
44.3536
44.4338
44.4546
44.449
44.4352
44.4209
44.4082
44.3974
44.3881
44.38
44.373
44.3668
44.3612
44.3562
44.3516
44.3473
44.3432
44.3392
44.3353
44.3313
44.3271
44.3215
44.3117
44.2885
44.2265
44.059
43.6228
42.5475
40.0898
35.1012
26.8005
16.5312
7.39035
0.48282
-6.09014
-14.5376
-24.5919
-33.4673
-39.197
-42.1201
-43.4059
-43.9219
-44.116
-44.1852
-44.2093
-44.2181
-44.2222
-44.2248
-44.2272
-44.2295
-44.2319
-44.2344
-44.2371
-44.24
-44.2432
-44.2469
-44.251
-44.2558
-44.2614
-44.2678
-44.2754
-44.2843
-44.2942
-44.3027
-44.3023
-44.2756
-44.1906
-44.0012
-43.6537
-43.1005
-42.3142
-41.2969
-40.0804
-38.7213
-37.2916
-35.8697
-34.5306
-33.3378
-32.3359
-31.5453
-30.962
-30.5612
-30.3055
-30.1544
</DataArray>
</CellData>
</Piece>
</RectilinearGrid>
</VTKFile>
