<?xml version="1.0"?>
<VTKFile type="RectilinearGrid">
<RectilinearGrid WholeExtent="0 100 0 0 0 0">
<Piece Extent="0 100 0 0 0 0">
<Coordinates>
<DataArray type="Float32" format="ascii">
0
10
20
30
40
50
60
70
80
90
100
110
120
130
140
150
160
170
180
190
200
210
220
230
240
250
260
270
280
290
300
310
320
330
340
350
360
370
380
390
400
410
420
430
440
450
460
470
480
490
500
510
520
530
540
550
560
570
580
590
600
610
620
630
640
650
660
670
680
690
700
710
720
730
740
750
760
770
780
790
800
810
820
830
840
850
860
870
880
890
900
910
920
930
940
950
960
970
980
990
1000
</DataArray>
<DataArray type="Float32" format="ascii">
0
</DataArray>
<DataArray type="Float32" format="ascii">
0
</DataArray>
</Coordinates>
<CellData>
<DataArray Name="h" type="Float32" format="ascii">
13.6199
13.5688
13.5301
13.5026
13.4845
13.4738
13.4684
13.4664
13.4665
13.4677
13.4693
13.4711
13.4727
13.4743
13.4757
13.4769
13.478
13.479
13.4798
13.4806
13.4812
13.4817
13.4822
13.4826
13.4832
13.4841
13.4861
13.491
13.5034
13.5343
13.6082
13.775
14.1154
14.7018
15.4902
16.2769
16.8649
17.2144
17.3925
17.4748
17.5105
17.5253
17.5312
17.5334
17.5342
17.5345
17.5346
17.5346
17.5346
17.5345
17.5344
17.5343
17.5342
17.534
17.5336
17.5328
17.5308
17.5257
17.5132
17.4828
17.4118
17.2551
16.9379
16.3823
15.6059
14.7995
14.1846
13.8206
13.6389
13.557
13.5223
13.5082
13.5026
13.5005
13.4996
13.4991
13.4988
13.4985
13.4981
13.4978
13.4973
13.4967
13.4961
13.4953
13.4944
13.4933
13.4922
13.4909
13.4895
13.4883
13.4875
13.4878
13.49
13.4955
13.5061
13.5238
13.5505
13.5879
13.6373
13.6989
</DataArray>
<DataArray Name="hu" type="Float32" format="ascii">
42.7592
43.2262
43.5848
43.8456
44.0246
44.14
44.21
44.2502
44.2727
44.2857
44.2944
44.3012
44.3076
44.3137
44.3196
44.3252
44.3301
44.3345
44.338
44.3407
44.3427
44.3439
44.3443
44.3437
44.3414
44.3352
44.3192
44.2776
44.1717
43.9073
43.2676
41.7925
38.6586
32.9082
24.5548
15.5695
8.44455
4.0409
1.74727
0.673868
0.204646
0.00901233
-0.0700045
-0.101759
-0.115288
-0.122142
-0.126717
-0.130567
-0.134227
-0.137889
-0.14163
-0.145493
-0.149625
-0.154472
-0.161345
-0.173892
-0.201692
-0.268949
-0.434228
-0.832656
-1.75693
-3.77722
-7.78428
-14.5401
-23.4315
-31.9956
-38.0454
-41.4097
-43.0226
-43.7337
-44.0317
-44.1521
-44.1994
-44.2177
-44.2248
-44.2277
-44.2289
-44.2293
-44.2291
-44.2284
-44.227
-44.225
-44.2222
-44.2186
-44.2143
-44.2093
-44.2035
-44.197
-44.1892
-44.179
-44.1637
-44.1384
-44.0953
-44.0229
-43.9063
-43.7283
-43.4711
-43.1192
-42.6617
-42.0937
</DataArray>
</CellData>
</Piece>
</RectilinearGrid>
</VTKFile>
