<?xml version="1.0"?>
<VTKFile type="RectilinearGrid">
<RectilinearGrid WholeExtent="0 100 0 0 0 0">
<Piece Extent="0 100 0 0 0 0">
<Coordinates>
<DataArray type="Float32" format="ascii">
0
10
20
30
40
50
60
70
80
90
100
110
120
130
140
150
160
170
180
190
200
210
220
230
240
250
260
270
280
290
300
310
320
330
340
350
360
370
380
390
400
410
420
430
440
450
460
470
480
490
500
510
520
530
540
550
560
570
580
590
600
610
620
630
640
650
660
670
680
690
700
710
720
730
740
750
760
770
780
790
800
810
820
830
840
850
860
870
880
890
900
910
920
930
940
950
960
970
980
990
1000
</DataArray>
<DataArray type="Float32" format="ascii">
0
</DataArray>
<DataArray type="Float32" format="ascii">
0
</DataArray>
</Coordinates>
<CellData>
<DataArray Name="h" type="Float32" format="ascii">
14.9927
14.9841
14.968
14.9401
14.8958
14.8307
14.7417
14.6284
14.4928
14.3401
14.1781
14.0162
13.8648
13.7333
13.6286
13.5537
13.5067
13.4816
13.4711
13.4685
13.4693
13.471
13.4727
13.4741
13.4753
13.4763
13.4771
13.4778
13.4784
13.4789
13.4793
13.4797
13.48
13.4802
13.4804
13.4804
13.4802
13.4792
13.4757
13.4653
13.4371
13.3656
13.1988
12.8514
12.2509
11.4739
10.78
10.3486
10.1495
10.0923
10.1363
10.309
10.6905
11.3302
12.1045
12.7597
13.1634
13.3622
13.4473
13.4805
13.4925
13.4965
13.4977
13.4979
13.4979
13.4977
13.4975
13.4973
13.497
13.4967
13.4963
13.4959
13.4954
13.4948
13.494
13.4931
13.4921
13.4909
13.4898
13.4897
13.4929
13.5039
13.529
13.5753
13.6484
13.7503
13.8788
14.0271
14.1863
14.3462
14.4973
14.6319
14.7445
14.8327
14.8973
14.9411
14.9686
14.9845
14.9929
14.997
</DataArray>
<DataArray Name="hu" type="Float32" format="ascii">
30.0741
30.1624
30.3275
30.6117
31.0618
31.7194
32.6099
33.7326
35.0569
36.5243
38.0548
39.5571
40.9396
42.1229
43.0537
43.7146
44.1283
44.3481
44.4398
44.462
44.4546
44.4389
44.4232
44.4096
44.3982
44.3883
44.3797
44.3721
44.3653
44.3593
44.3538
44.3487
44.3438
44.339
44.334
44.3281
44.3183
44.2962
44.2361
44.07
43.6277
42.5222
39.9817
34.8481
26.4505
16.4324
8.23948
3.46796
1.20071
0.0481003
-1.03709
-3.04243
-7.23214
-14.6539
-24.3865
-33.2877
-39.1231
-42.1115
-43.4189
-43.9363
-44.1265
-44.1925
-44.2149
-44.2232
-44.2274
-44.2304
-44.2333
-44.2363
-44.2395
-44.243
-44.2469
-44.2514
-44.2565
-44.2624
-44.2693
-44.2773
-44.2868
-44.2977
-44.3077
-44.3086
-44.2797
-44.1828
-43.9619
-43.5536
-42.9056
-41.9943
-40.8335
-39.4734
-37.9902
-36.4743
-35.0176
-33.7009
-32.5842
-31.6992
-31.0467
-30.6013
-30.3209
-30.1587
-30.0725
-30.0304
</DataArray>
</CellData>
</Piece>
</RectilinearGrid>
</VTKFile>
