<?xml version="1.0"?>
<VTKFile type="RectilinearGrid">
<RectilinearGrid WholeExtent="0 100 0 0 0 0">
<Piece Extent="0 100 0 0 0 0">
<Coordinates>
<DataArray type="Float32" format="ascii">
0
10
20
30
40
50
60
70
80
90
100
110
120
130
140
150
160
170
180
190
200
210
220
230
240
250
260
270
280
290
300
310
320
330
340
350
360
370
380
390
400
410
420
430
440
450
460
470
480
490
500
510
520
530
540
550
560
570
580
590
600
610
620
630
640
650
660
670
680
690
700
710
720
730
740
750
760
770
780
790
800
810
820
830
840
850
860
870
880
890
900
910
920
930
940
950
960
970
980
990
1000
</DataArray>
<DataArray type="Float32" format="ascii">
0
</DataArray>
<DataArray type="Float32" format="ascii">
0
</DataArray>
</Coordinates>
<CellData>
<DataArray Name="h" type="Float32" format="ascii">
14.776
14.688
14.5827
14.4626
14.3314
14.1941
14.0565
13.9247
13.8047
13.7017
13.619
13.5576
13.5161
13.4912
13.4782
13.4729
13.4717
13.4724
13.4736
13.4749
13.4761
13.477
13.4779
13.4786
13.4792
13.4797
13.4801
13.4805
13.4809
13.4812
13.4814
13.4817
13.4819
13.482
13.4822
13.4823
13.4825
13.4826
13.4829
13.4835
13.4855
13.4912
13.5077
13.5525
13.6671
13.9327
14.4497
15.2114
15.9589
16.3175
16.0911
15.3907
14.5893
14.0136
13.7106
13.5789
13.5276
13.509
13.5025
13.5003
13.4996
13.4993
13.4992
13.4991
13.4989
13.4988
13.4987
13.4985
13.4983
13.4981
13.4979
13.4977
13.4974
13.497
13.4967
13.4962
13.4957
13.4951
13.4944
13.4936
13.4927
13.4919
13.4917
13.4935
13.4992
13.5124
13.537
13.5776
13.6374
13.7179
13.8184
13.9357
14.065
14.2006
14.3364
14.4665
14.586
14.6908
14.7785
14.8483
</DataArray>
<DataArray Name="hu" type="Float32" format="ascii">
32.2348
33.121
34.1657
35.3407
36.6043
37.9061
39.1905
40.4019
41.4894
42.4127
43.1475
43.689
44.0531
44.2719
44.3851
44.4315
44.4417
44.4356
44.4242
44.4125
44.4019
44.3928
44.3849
44.378
44.3721
44.3668
44.3621
44.3579
44.3541
44.3505
44.3472
44.344
44.3411
44.3382
44.3355
44.3328
44.3301
44.3271
44.3229
44.315
44.2955
44.2419
44.0921
43.6839
42.6202
40.0496
34.6131
25.3864
13.5452
1.30265
-10.9381
-23.1315
-33.1588
-39.3113
-42.271
-43.4966
-43.9628
-44.131
-44.1895
-44.2097
-44.217
-44.2202
-44.2221
-44.2237
-44.2253
-44.227
-44.2287
-44.2305
-44.2325
-44.2346
-44.2369
-44.2394
-44.2421
-44.2452
-44.2488
-44.2528
-44.2575
-44.263
-44.2695
-44.2769
-44.2849
-44.2919
-44.2931
-44.278
-44.2272
-44.1117
-43.8944
-43.5368
-43.0074
-42.2895
-41.386
-40.319
-39.1267
-37.8584
-36.5694
-35.3155
-34.148
-33.1095
-32.2292
-31.5203
</DataArray>
</CellData>
</Piece>
</RectilinearGrid>
</VTKFile>
