<?xml version="1.0"?>
<VTKFile type="RectilinearGrid">
<RectilinearGrid WholeExtent="0 100 0 0 0 0">
<Piece Extent="0 100 0 0 0 0">
<Coordinates>
<DataArray type="Float32" format="ascii">
0
10
20
30
40
50
60
70
80
90
100
110
120
130
140
150
160
170
180
190
200
210
220
230
240
250
260
270
280
290
300
310
320
330
340
350
360
370
380
390
400
410
420
430
440
450
460
470
480
490
500
510
520
530
540
550
560
570
580
590
600
610
620
630
640
650
660
670
680
690
700
710
720
730
740
750
760
770
780
790
800
810
820
830
840
850
860
870
880
890
900
910
920
930
940
950
960
970
980
990
1000
</DataArray>
<DataArray type="Float32" format="ascii">
0
</DataArray>
<DataArray type="Float32" format="ascii">
0
</DataArray>
</Coordinates>
<CellData>
<DataArray Name="h" type="Float32" format="ascii">
15
15
15
14.9999
14.9996
14.9986
14.9959
14.989
14.9738
14.9436
14.8904
14.8059
14.685
14.5278
14.3413
14.1391
13.9398
13.7632
13.6257
13.5346
13.4859
13.4667
13.4631
13.4649
13.4676
13.4698
13.4715
13.4729
13.474
13.4748
13.4754
13.475
13.4716
13.4587
13.4189
13.3119
13.0608
12.5669
11.8192
11.0297
10.4677
10.1796
10.0613
10.019
10.0054
10.0014
10.0003
10.0001
10
10
10
10.0001
10.0003
10.0013
10.005
10.0176
10.0564
10.1641
10.425
10.9412
11.6997
12.4727
13.019
13.3064
13.4297
13.4752
13.4899
13.4938
13.4944
13.494
13.4934
13.4925
13.4915
13.4902
13.4886
13.4867
13.4858
13.4905
13.5103
13.5587
13.6479
13.7821
13.9548
14.1504
14.3496
14.5339
14.6895
14.8091
14.8925
14.945
14.9745
14.9894
14.996
14.9987
14.9996
14.9999
15
15
15
15
</DataArray>
<DataArray Name="hu" type="Float32" format="ascii">
30
30
30.0003
30.0011
30.0043
30.0142
30.0423
30.1124
30.2679
30.575
31.1154
31.9657
33.1691
34.7097
36.5032
38.4068
40.244
41.8403
43.065
43.8684
44.2967
44.4642
44.4954
44.4778
44.4524
44.4304
44.4125
44.3975
44.3842
44.3716
44.3572
44.3317
44.262
44.0467
43.4169
41.7612
37.9705
30.8383
20.8056
11.1427
4.84051
1.81167
0.610646
0.18845
0.0532964
0.0137442
0.00321133
0.000677641
0.000125419
7.96306e-07
-0.000115965
-0.000638833
-0.00303434
-0.012929
-0.0498386
-0.174971
-0.562118
-1.65199
-4.38157
-10.1076
-19.2288
-29.3445
-37.0392
-41.308
-43.1969
-43.9105
-44.1489
-44.2218
-44.2451
-44.2558
-44.2644
-44.2733
-44.2836
-44.296
-44.3115
-44.3291
-44.3373
-44.296
-44.1212
-43.6934
-42.9018
-41.699
-40.1292
-38.317
-36.4337
-34.6555
-33.1272
-31.9345
-31.0938
-30.5616
-30.2605
-30.1087
-30.0407
-30.0137
-30.0041
-30.0011
-30.0003
-30
-30
-30
</DataArray>
</CellData>
</Piece>
</RectilinearGrid>
</VTKFile>
