<?xml version="1.0"?>
<VTKFile type="RectilinearGrid">
<RectilinearGrid WholeExtent="0 100 0 0 0 0">
<Piece Extent="0 100 0 0 0 0">
<Coordinates>
<DataArray type="Float32" format="ascii">
0
10
20
30
40
50
60
70
80
90
100
110
120
130
140
150
160
170
180
190
200
210
220
230
240
250
260
270
280
290
300
310
320
330
340
350
360
370
380
390
400
410
420
430
440
450
460
470
480
490
500
510
520
530
540
550
560
570
580
590
600
610
620
630
640
650
660
670
680
690
700
710
720
730
740
750
760
770
780
790
800
810
820
830
840
850
860
870
880
890
900
910
920
930
940
950
960
970
980
990
1000
</DataArray>
<DataArray type="Float32" format="ascii">
0
</DataArray>
<DataArray type="Float32" format="ascii">
0
</DataArray>
</Coordinates>
<CellData>
<DataArray Name="h" type="Float32" format="ascii">
13.5354
13.5061
13.486
13.4734
13.4663
13.4631
13.4623
13.4629
13.4643
13.4659
13.4676
13.4693
13.4709
13.4724
13.4738
13.4752
13.4764
13.4775
13.4786
13.4795
13.4804
13.4812
13.4823
13.4839
13.4873
13.4953
13.5148
13.5617
13.6701
13.9037
14.3478
15.0369
15.8503
16.562
17.0398
17.3043
17.4338
17.4925
17.5179
17.5284
17.5326
17.5342
17.5349
17.5351
17.5352
17.5353
17.5353
17.5353
17.5353
17.5352
17.5352
17.5351
17.535
17.5349
17.5347
17.5345
17.5341
17.5335
17.5319
17.5283
17.5192
17.4975
17.4466
17.3325
17.0936
16.647
15.9549
15.1349
14.4225
13.9553
13.7052
13.5871
13.5352
13.5134
13.5045
13.5009
13.4992
13.4984
13.4977
13.4971
13.4964
13.4956
13.4948
13.4938
13.4927
13.4915
13.4902
13.4889
13.4874
13.4859
13.4845
13.4834
13.483
13.484
13.4873
13.4943
13.5066
13.5261
13.5544
13.593
</DataArray>
<DataArray Name="hu" type="Float32" format="ascii">
43.4642
43.732
43.92
44.0442
44.1215
44.1667
44.1921
44.2067
44.2161
44.2239
44.2316
44.2399
44.2488
44.2583
44.268
44.2776
44.287
44.2958
44.3038
44.3109
44.3168
44.3209
44.3218
44.3158
44.2933
44.23
44.0672
43.667
42.723
40.626
36.4327
29.445
20.5262
12.1667
6.26551
2.89662
1.21934
0.451076
0.11754
-0.0219187
-0.0788905
-0.102266
-0.112522
-0.117837
-0.121382
-0.124337
-0.127135
-0.129948
-0.132795
-0.135705
-0.138666
-0.141643
-0.144661
-0.14779
-0.151139
-0.155085
-0.160647
-0.170425
-0.191296
-0.240462
-0.359436
-0.644703
-1.3091
-2.78667
-5.83503
-11.3665
-19.5169
-28.5203
-35.7571
-40.1845
-42.4386
-43.4718
-43.9178
-44.1026
-44.1761
-44.2038
-44.2129
-44.2143
-44.2123
-44.2084
-44.2033
-44.197
-44.1897
-44.1815
-44.1725
-44.1629
-44.153
-44.1429
-44.1327
-44.1223
-44.1112
-44.0976
-44.0784
-44.0482
-43.9986
-43.9179
-43.7919
-43.6046
-43.3406
-42.9865
</DataArray>
</CellData>
</Piece>
</RectilinearGrid>
</VTKFile>
