<?xml version="1.0"?>
<VTKFile type="RectilinearGrid">
<RectilinearGrid WholeExtent="0 100 0 0 0 0">
<Piece Extent="0 100 0 0 0 0">
<Coordinates>
<DataArray type="Float32" format="ascii">
0
10
20
30
40
50
60
70
80
90
100
110
120
130
140
150
160
170
180
190
200
210
220
230
240
250
260
270
280
290
300
310
320
330
340
350
360
370
380
390
400
410
420
430
440
450
460
470
480
490
500
510
520
530
540
550
560
570
580
590
600
610
620
630
640
650
660
670
680
690
700
710
720
730
740
750
760
770
780
790
800
810
820
830
840
850
860
870
880
890
900
910
920
930
940
950
960
970
980
990
1000
</DataArray>
<DataArray type="Float32" format="ascii">
0
</DataArray>
<DataArray type="Float32" format="ascii">
0
</DataArray>
</Coordinates>
<CellData>
<DataArray Name="h" type="Float32" format="ascii">
14.8389
14.7648
14.6719
14.5613
14.4358
14.2997
14.1585
14.0186
13.8867
13.7689
13.6701
13.5933
13.5386
13.5035
13.4838
13.4746
13.4716
13.4715
13.4727
13.474
13.4753
13.4764
13.4773
13.4781
13.4787
13.4793
13.4798
13.4802
13.4806
13.4809
13.4812
13.4814
13.4816
13.4818
13.482
13.4821
13.4822
13.4823
13.4825
13.4827
13.4832
13.485
13.4904
13.5059
13.5483
13.657
13.9046
14.3602
14.9323
15.258
15.0394
14.4751
13.9779
13.6977
13.5738
13.5256
13.5082
13.5022
13.5002
13.4995
13.4993
13.4991
13.499
13.4989
13.4988
13.4987
13.4985
13.4984
13.4982
13.498
13.4977
13.4974
13.4971
13.4968
13.4964
13.4959
13.4953
13.4946
13.4939
13.4929
13.492
13.4914
13.492
13.4956
13.5051
13.5248
13.5592
13.6126
13.6874
13.7836
13.8987
14.028
14.1656
14.3051
14.4399
14.5646
14.6747
14.7672
14.841
14.8967
</DataArray>
<DataArray Name="hu" type="Float32" format="ascii">
31.6136
32.3644
33.2937
34.3853
35.6065
36.9107
38.2422
39.5409
40.748
41.8116
42.6932
43.3734
43.8552
44.1629
44.3353
44.4158
44.4422
44.4422
44.432
44.4196
44.408
44.3978
44.3891
44.3815
44.375
44.3693
44.3642
44.3596
44.3554
44.3516
44.3481
44.3447
44.3416
44.3385
44.3356
44.3327
44.3299
44.327
44.3236
44.3188
44.3092
44.2848
44.2164
44.0237
43.496
42.1175
38.7692
31.596
19.0413
2.04801
-15.5937
-29.5027
-37.7705
-41.6793
-43.2821
-43.8881
-44.1055
-44.1806
-44.206
-44.2149
-44.2185
-44.2207
-44.2224
-44.2241
-44.2258
-44.2275
-44.2294
-44.2313
-44.2334
-44.2357
-44.2381
-44.2408
-44.2438
-44.2472
-44.2511
-44.2556
-44.2608
-44.2669
-44.274
-44.2821
-44.2904
-44.2958
-44.2906
-44.2591
-44.175
-44.0021
-43.6986
-43.2268
-42.5621
-41.6998
-40.6568
-39.4695
-38.1877
-36.8697
-35.5756
-34.3618
-33.2761
-32.3522
-31.6068
-31.0386
</DataArray>
</CellData>
</Piece>
</RectilinearGrid>
</VTKFile>
