<?xml version="1.0"?>
<VTKFile type="RectilinearGrid">
<RectilinearGrid WholeExtent="0 100 0 0 0 0">
<Piece Extent="0 100 0 0 0 0">
<Coordinates>
<DataArray type="Float32" format="ascii">
0
10
20
30
40
50
60
70
80
90
100
110
120
130
140
150
160
170
180
190
200
210
220
230
240
250
260
270
280
290
300
310
320
330
340
350
360
370
380
390
400
410
420
430
440
450
460
470
480
490
500
510
520
530
540
550
560
570
580
590
600
610
620
630
640
650
660
670
680
690
700
710
720
730
740
750
760
770
780
790
800
810
820
830
840
850
860
870
880
890
900
910
920
930
940
950
960
970
980
990
1000
</DataArray>
<DataArray type="Float32" format="ascii">
0
</DataArray>
<DataArray type="Float32" format="ascii">
0
</DataArray>
</Coordinates>
<CellData>
<DataArray Name="h" type="Float32" format="ascii">
14.9953
14.9892
14.9771
14.9553
14.9189
14.8632
14.7842
14.6801
14.5516
14.4031
14.2413
14.0758
13.917
13.7754
13.6594
13.5737
13.5177
13.4865
13.4725
13.4684
13.4687
13.4703
13.4721
13.4736
13.4749
13.4759
13.4768
13.4776
13.4782
13.4787
13.4791
13.4795
13.4798
13.48
13.4802
13.4802
13.4797
13.4778
13.4717
13.4543
13.4085
13.2964
13.0477
12.5719
11.8545
11.0846
10.5181
10.215
10.0873
10.0524
10.08
10.1916
10.4585
10.9686
11.7032
12.4504
12.9873
13.2802
13.4136
13.4678
13.488
13.495
13.4971
13.4977
13.4977
13.4976
13.4974
13.4972
13.4969
13.4966
13.4962
13.4957
13.4952
13.4945
13.4937
13.4928
13.4917
13.4904
13.4894
13.4898
13.4946
13.509
13.54
13.5949
13.6785
13.7916
13.93
14.0858
14.2488
14.4086
14.5558
14.6833
14.7867
14.8651
14.9202
14.9561
14.9776
14.9894
14.9954
14.9982
</DataArray>
<DataArray Name="hu" type="Float32" format="ascii">
30.0481
30.1107
30.2341
30.4571
30.827
31.3912
32.1853
33.2222
34.484
35.9216
37.4598
39.0065
40.4646
41.7447
42.7799
43.5384
44.0306
44.3043
44.4266
44.4625
44.4594
44.4441
44.4276
44.4132
44.4011
44.3906
44.3816
44.3736
44.3665
44.3601
44.3544
44.349
44.3439
44.3388
44.3333
44.3259
44.3118
44.2758
44.1757
43.9009
43.1869
41.4653
37.7278
30.8694
21.2323
11.7667
5.36485
2.12287
0.70838
0.0251928
-0.619821
-1.87754
-4.71909
-10.4057
-19.2474
-29.0089
-36.5444
-40.8718
-42.9017
-43.7403
-44.0579
-44.1703
-44.2083
-44.2215
-44.227
-44.2306
-44.2337
-44.2368
-44.2401
-44.2438
-44.2479
-44.2527
-44.2581
-44.2643
-44.2715
-44.2801
-44.2902
-44.3015
-44.3108
-44.307
-44.2644
-44.1376
-43.8644
-43.3797
-42.6366
-41.6225
-40.3655
-38.9291
-37.4001
-35.8752
-34.4472
-33.1925
-32.1615
-31.3729
-30.8139
-30.4485
-30.2289
-30.1079
-30.0469
-30.0187
</DataArray>
</CellData>
</Piece>
</RectilinearGrid>
</VTKFile>
