<?xml version="1.0"?>
<VTKFile type="RectilinearGrid">
<RectilinearGrid WholeExtent="0 100 0 0 0 0">
<Piece Extent="0 100 0 0 0 0">
<Coordinates>
<DataArray type="Float32" format="ascii">
0
10
20
30
40
50
60
70
80
90
100
110
120
130
140
150
160
170
180
190
200
210
220
230
240
250
260
270
280
290
300
310
320
330
340
350
360
370
380
390
400
410
420
430
440
450
460
470
480
490
500
510
520
530
540
550
560
570
580
590
600
610
620
630
640
650
660
670
680
690
700
710
720
730
740
750
760
770
780
790
800
810
820
830
840
850
860
870
880
890
900
910
920
930
940
950
960
970
980
990
1000
</DataArray>
<DataArray type="Float32" format="ascii">
0
</DataArray>
<DataArray type="Float32" format="ascii">
0
</DataArray>
</Coordinates>
<CellData>
<DataArray Name="h" type="Float32" format="ascii">
13.5236
13.4978
13.4806
13.47
13.4644
13.462
13.4617
13.4626
13.4639
13.4656
13.4672
13.4689
13.4705
13.472
13.4734
13.4747
13.476
13.4771
13.4782
13.4792
13.4801
13.4811
13.4825
13.4849
13.4901
13.5027
13.5329
13.6043
13.7643
14.0908
14.6581
15.4332
16.2228
16.8253
17.1901
17.3791
17.468
17.5074
17.5241
17.5309
17.5336
17.5347
17.5351
17.5353
17.5354
17.5354
17.5354
17.5354
17.5354
17.5354
17.5353
17.5352
17.5351
17.535
17.5348
17.5347
17.5344
17.5339
17.5329
17.5304
17.5245
17.5102
17.4762
17.3985
17.2297
16.8941
16.3189
15.5355
14.7434
14.1522
13.8061
13.6336
13.5554
13.5218
13.5078
13.5021
13.4996
13.4984
13.4976
13.4969
13.4961
13.4953
13.4944
13.4934
13.4923
13.4911
13.4898
13.4884
13.4869
13.4855
13.484
13.4828
13.4822
13.4827
13.4851
13.4908
13.5011
13.5178
13.5428
13.5774
</DataArray>
<DataArray Name="hu" type="Float32" format="ascii">
43.5623
43.7977
43.9597
44.0645
44.1282
44.1647
44.1849
44.1966
44.2047
44.2118
44.2194
44.2278
44.237
44.2468
44.257
44.2672
44.2771
44.2866
44.2954
44.3033
44.3097
44.3139
44.3133
44.302
44.2647
44.1638
43.9092
43.2954
41.8852
38.8894
33.3532
25.1865
16.2156
8.94446
4.36104
1.93135
0.773844
0.257467
0.0370539
-0.0542
-0.0915023
-0.107155
-0.114474
-0.118704
-0.121818
-0.124562
-0.12722
-0.129881
-0.132576
-0.135305
-0.138085
-0.140919
-0.143792
-0.146727
-0.149852
-0.153403
-0.157986
-0.165277
-0.17965
-0.212273
-0.290506
-0.478946
-0.923646
-1.93544
-4.10744
-8.33338
-15.2951
-24.2098
-32.5665
-38.3516
-41.5383
-43.0656
-43.743
-44.0292
-44.1454
-44.1902
-44.2056
-44.209
-44.2072
-44.2028
-44.1969
-44.1898
-44.1816
-44.1726
-44.1629
-44.1526
-44.1421
-44.1314
-44.1209
-44.1105
-44.0998
-44.0875
-44.071
-44.0457
-44.0045
-43.9368
-43.8295
-43.6673
-43.4346
-43.1174
</DataArray>
</CellData>
</Piece>
</RectilinearGrid>
</VTKFile>
