<?xml version="1.0"?>
<VTKFile type="RectilinearGrid">
<RectilinearGrid WholeExtent="0 100 0 0 0 0">
<Piece Extent="0 100 0 0 0 0">
<Coordinates>
<DataArray type="Float32" format="ascii">
0
10
20
30
40
50
60
70
80
90
100
110
120
130
140
150
160
170
180
190
200
210
220
230
240
250
260
270
280
290
300
310
320
330
340
350
360
370
380
390
400
410
420
430
440
450
460
470
480
490
500
510
520
530
540
550
560
570
580
590
600
610
620
630
640
650
660
670
680
690
700
710
720
730
740
750
760
770
780
790
800
810
820
830
840
850
860
870
880
890
900
910
920
930
940
950
960
970
980
990
1000
</DataArray>
<DataArray type="Float32" format="ascii">
0
</DataArray>
<DataArray type="Float32" format="ascii">
0
</DataArray>
</Coordinates>
<CellData>
<DataArray Name="h" type="Float32" format="ascii">
13.8615
13.7688
13.6881
13.6211
13.5684
13.5296
13.503
13.4865
13.4773
13.4732
13.4721
13.4726
13.4738
13.4751
13.4764
13.4775
13.4784
13.4792
13.4799
13.4804
13.4809
13.4813
13.4817
13.482
13.4823
13.4825
13.4827
13.483
13.4834
13.4841
13.486
13.4909
13.5036
13.5359
13.6146
13.7939
14.1594
14.7795
15.5897
16.3696
16.9316
17.2546
17.4141
17.4853
17.515
17.5266
17.5309
17.5324
17.5329
17.5329
17.5327
17.5322
17.5308
17.527
17.5172
17.4924
17.4323
17.2952
17.0082
16.4866
15.7247
14.8962
14.2411
13.8456
13.6476
13.5593
13.5226
13.5081
13.5026
13.5005
13.4997
13.4993
13.4991
13.4989
13.4987
13.4985
13.4983
13.4981
13.4978
13.4975
13.4971
13.4967
13.4961
13.4955
13.4948
13.4939
13.4931
13.4925
13.4926
13.4943
13.4988
13.5082
13.5247
13.5508
13.5886
13.6398
13.705
13.7835
13.874
13.9741
</DataArray>
<DataArray Name="hu" type="Float32" format="ascii">
40.6955
41.5562
42.3022
42.9211
43.4097
43.7743
44.0294
44.1954
44.2947
44.3485
44.3742
44.384
44.386
44.3845
44.3818
44.3787
44.3755
44.3723
44.3692
44.3662
44.3632
44.3603
44.3575
44.3549
44.3523
44.3499
44.3475
44.3448
44.3411
44.3341
44.3177
44.2757
44.1668
43.8896
43.2075
41.6177
38.2361
32.1068
23.4398
14.4535
7.59704
3.50664
1.44517
0.512764
0.120282
-0.0369706
-0.0985081
-0.123339
-0.134972
-0.142459
-0.149794
-0.160616
-0.182447
-0.23461
-0.365757
-0.692744
-1.47802
-3.25264
-6.89603
-13.2896
-22.1056
-30.9996
-37.5051
-41.1828
-42.9453
-43.7129
-44.0281
-44.1521
-44.1995
-44.2175
-44.2246
-44.2278
-44.2298
-44.2315
-44.2332
-44.2349
-44.2368
-44.2388
-44.241
-44.2433
-44.2458
-44.2485
-44.2513
-44.2542
-44.2571
-44.2596
-44.2606
-44.2581
-44.2475
-44.2214
-44.1676
-44.0697
-43.9074
-43.6588
-43.3041
-42.8285
-42.2251
-41.4959
-40.6518
-39.7112
</DataArray>
</CellData>
</Piece>
</RectilinearGrid>
</VTKFile>
