<?xml version="1.0"?>
<VTKFile type="RectilinearGrid">
<RectilinearGrid WholeExtent="0 100 0 0 0 0">
<Piece Extent="0 100 0 0 0 0">
<Coordinates>
<DataArray type="Float32" format="ascii">
0
10
20
30
40
50
60
70
80
90
100
110
120
130
140
150
160
170
180
190
200
210
220
230
240
250
260
270
280
290
300
310
320
330
340
350
360
370
380
390
400
410
420
430
440
450
460
470
480
490
500
510
520
530
540
550
560
570
580
590
600
610
620
630
640
650
660
670
680
690
700
710
720
730
740
750
760
770
780
790
800
810
820
830
840
850
860
870
880
890
900
910
920
930
940
950
960
970
980
990
1000
</DataArray>
<DataArray type="Float32" format="ascii">
0
</DataArray>
<DataArray type="Float32" format="ascii">
0
</DataArray>
</Coordinates>
<CellData>
<DataArray Name="h" type="Float32" format="ascii">
14.9994
14.9983
14.9954
14.9891
14.9762
14.9521
14.9114
14.8483
14.7585
14.6403
14.4958
14.3311
14.1558
13.9821
13.8228
13.6894
13.5892
13.5235
13.4871
13.4712
13.4669
13.4675
13.4695
13.4714
13.473
13.4743
13.4754
13.4763
13.4771
13.4777
13.4782
13.4786
13.4789
13.479
13.4788
13.4772
13.4716
13.455
13.4096
13.2962
13.0422
12.5553
11.8261
11.0537
10.4945
10.1991
10.0724
10.0245
10.0082
10.0043
10.0077
10.0225
10.0656
10.1787
10.4415
10.9481
11.6856
12.4417
12.9866
13.2828
13.4162
13.4693
13.4885
13.4948
13.4966
13.4969
13.4969
13.4966
13.4963
13.4959
13.4954
13.4949
13.4942
13.4934
13.4924
13.4912
13.4898
13.4885
13.4887
13.4938
13.5101
13.5463
13.6107
13.7084
13.8386
13.9945
14.1651
14.338
14.5009
14.6442
14.7614
14.8505
14.9129
14.9531
14.9767
14.9894
14.9956
14.9983
14.9994
14.9998
</DataArray>
<DataArray Name="hu" type="Float32" format="ascii">
30.0062
30.0178
30.0466
30.1114
30.2437
30.4891
30.9033
31.5414
32.4422
33.6139
35.0254
36.607
38.2592
39.8666
41.3147
42.5097
43.3974
43.9764
44.2957
44.4344
44.4719
44.4659
44.4478
44.4296
44.4142
44.4012
44.3901
44.3803
44.3716
44.3638
44.3567
44.35
44.3434
44.3355
44.3221
44.2893
44.1957
43.9299
43.2201
41.4768
37.6574
30.6469
20.8746
11.4129
5.12599
2.01094
0.721776
0.240537
0.0702507
0.00155086
-0.0640485
-0.219899
-0.653494
-1.8008
-4.55455
-10.1776
-19.0338
-28.8984
-36.5419
-40.9197
-42.9525
-43.7767
-44.0801
-44.1835
-44.2172
-44.2289
-44.2345
-44.2387
-44.2428
-44.2474
-44.2526
-44.2584
-44.2651
-44.2728
-44.2818
-44.2927
-44.3053
-44.3168
-44.3152
-44.2702
-44.1265
-43.8078
-43.2378
-42.3675
-41.1955
-39.7714
-38.1854
-36.5499
-34.9806
-33.5782
-32.4139
-31.5199
-30.8881
-30.4792
-30.2379
-30.1083
-30.0451
-30.0172
-30.006
-30.0019
</DataArray>
</CellData>
</Piece>
</RectilinearGrid>
</VTKFile>
