<?xml version="1.0"?>
<VTKFile type="RectilinearGrid">
<RectilinearGrid WholeExtent="0 100 0 0 0 0">
<Piece Extent="0 100 0 0 0 0">
<Coordinates>
<DataArray type="Float32" format="ascii">
0
10
20
30
40
50
60
70
80
90
100
110
120
130
140
150
160
170
180
190
200
210
220
230
240
250
260
270
280
290
300
310
320
330
340
350
360
370
380
390
400
410
420
430
440
450
460
470
480
490
500
510
520
530
540
550
560
570
580
590
600
610
620
630
640
650
660
670
680
690
700
710
720
730
740
750
760
770
780
790
800
810
820
830
840
850
860
870
880
890
900
910
920
930
940
950
960
970
980
990
1000
</DataArray>
<DataArray type="Float32" format="ascii">
0
</DataArray>
<DataArray type="Float32" format="ascii">
0
</DataArray>
</Coordinates>
<CellData>
<DataArray Name="h" type="Float32" format="ascii">
15
15
15
14.9999
14.9998
14.9993
14.9976
14.9932
14.9826
14.9601
14.9178
14.8469
14.74
14.5944
14.4147
14.2123
14.0055
13.8155
13.6614
13.5546
13.4943
13.4687
13.4626
13.4639
13.4667
13.4691
13.4709
13.4724
13.4735
13.4744
13.4747
13.4736
13.4673
13.4455
13.3814
13.2178
12.8601
12.2297
11.419
10.715
10.2951
10.1055
10.0339
10.0099
10.0026
10.0006
10.0001
10
10
10
10
10
10.0001
10.0006
10.0025
10.0092
10.0314
10.0969
10.2692
10.6518
11.3114
12.1188
12.7953
13.1991
13.387
13.4605
13.4853
13.4924
13.4939
13.4937
13.4931
13.4922
13.4911
13.4897
13.488
13.486
13.4857
13.4928
13.5189
13.5786
13.683
13.8335
14.0195
14.2227
14.4222
14.6
14.744
14.8497
14.9196
14.9611
14.9831
14.9934
14.9977
14.9993
14.9998
15
15
15
15
15
</DataArray>
<DataArray Name="hu" type="Float32" format="ascii">
30
30
30.0001
30.0005
30.0021
30.0076
30.0245
30.0699
30.1783
30.4074
30.8371
31.5543
32.6243
34.0597
35.8017
37.7212
39.6406
41.369
42.7469
43.6911
44.2217
44.4457
44.4986
44.4853
44.4587
44.4351
44.416
44.4
44.3858
44.372
44.3542
44.3156
44.2005
43.8454
42.8412
40.3342
35.0273
26.2062
15.7918
7.55243
3.00815
1.05635
0.336775
0.0981483
0.0260691
0.00627101
0.00135681
0.000263069
4.41169e-05
2.11771e-07
-4.05962e-05
-0.00024658
-0.00128304
-0.00591971
-0.0244843
-0.0916104
-0.311947
-0.969708
-2.7371
-6.8464
-14.4591
-24.6108
-33.8312
-39.6989
-42.5434
-43.6838
-44.0809
-44.2047
-44.2421
-44.2564
-44.2659
-44.2755
-44.2864
-44.2997
-44.3164
-44.3346
-44.3379
-44.2747
-44.0445
-43.517
-42.5877
-41.234
-39.5325
-37.6372
-35.7365
-34.0091
-32.5858
-31.5267
-30.819
-30.3968
-30.1728
-30.0674
-30.0235
-30.0073
-30.002
-30.0005
-30.0001
-30
-30
-30
</DataArray>
</CellData>
</Piece>
</RectilinearGrid>
</VTKFile>
