<?xml version="1.0"?>
<VTKFile type="RectilinearGrid">
<RectilinearGrid WholeExtent="0 100 0 0 0 0">
<Piece Extent="0 100 0 0 0 0">
<Coordinates>
<DataArray type="Float32" format="ascii">
0
10
20
30
40
50
60
70
80
90
100
110
120
130
140
150
160
170
180
190
200
210
220
230
240
250
260
270
280
290
300
310
320
330
340
350
360
370
380
390
400
410
420
430
440
450
460
470
480
490
500
510
520
530
540
550
560
570
580
590
600
610
620
630
640
650
660
670
680
690
700
710
720
730
740
750
760
770
780
790
800
810
820
830
840
850
860
870
880
890
900
910
920
930
940
950
960
970
980
990
1000
</DataArray>
<DataArray type="Float32" format="ascii">
0
</DataArray>
<DataArray type="Float32" format="ascii">
0
</DataArray>
</Coordinates>
<CellData>
<DataArray Name="h" type="Float32" format="ascii">
15
15
15
15
15
15
15
15
14.9999
14.9995
14.9981
14.9935
14.9809
14.9514
14.8917
14.7874
14.6292
14.419
14.1743
13.9266
13.7133
13.564
13.4853
13.4588
13.4569
13.4609
13.4644
13.4664
13.4658
13.4554
13.4131
13.2838
12.9662
12.3563
11.5162
10.754
10.2968
10.0977
10.028
10.007
10.0016
10.0003
10
10
10
10
10
10
10
10
10
10
10
10
10
10
10
10.0003
10.0015
10.0066
10.0262
10.0911
10.2751
10.6989
11.4243
12.2708
12.9266
13.2814
13.4271
13.4748
13.4867
13.488
13.4866
13.4839
13.4811
13.4844
13.512
13.5901
13.7363
13.9449
14.1879
14.4287
14.6359
14.7919
14.8944
14.9529
14.9816
14.9938
14.9982
14.9995
14.9999
15
15
15
15
15
15
15
15
15
</DataArray>
<DataArray Name="hu" type="Float32" format="ascii">
30
30
30
30
30
30
30
30.0002
30.0011
30.0049
30.0195
30.0663
30.1946
30.4956
31.1011
32.1482
33.7139
35.7508
38.0638
40.3461
42.2669
43.5908
44.2833
44.5149
44.5283
44.4885
44.4513
44.4166
44.354
44.1502
43.4574
41.4392
36.6551
27.9791
17.0211
8.00252
3.02922
0.978373
0.277734
0.0696575
0.0153569
0.00294978
0.000487842
6.88953e-05
7.49601e-06
1.52882e-07
3.04474e-09
1.71964e-11
1.28434e-13
2.23842e-17
-1.26349e-13
-1.70755e-11
-1.0682e-09
-1.1299e-07
-4.99481e-06
-6.30966e-05
-0.000464764
-0.00280822
-0.014568
-0.0657666
-0.260628
-0.911463
-2.80153
-7.38085
-15.8559
-26.6703
-35.7643
-41.0046
-43.2496
-44.0143
-44.2307
-44.2893
-44.3158
-44.3427
-44.3697
-44.3412
-44.0976
-43.4055
-42.099
-40.2067
-37.9541
-35.6665
-33.6509
-32.104
-31.0733
-30.4805
-30.1875
-30.0635
-30.0186
-30.0047
-30.001
-30.0002
-30
-30
-30
-30
-30
-30
-30
-30
</DataArray>
</CellData>
</Piece>
</RectilinearGrid>
</VTKFile>
