<?xml version="1.0"?>
<VTKFile type="RectilinearGrid">
<RectilinearGrid WholeExtent="0 100 0 0 0 0">
<Piece Extent="0 100 0 0 0 0">
<Coordinates>
<DataArray type="Float32" format="ascii">
0
10
20
30
40
50
60
70
80
90
100
110
120
130
140
150
160
170
180
190
200
210
220
230
240
250
260
270
280
290
300
310
320
330
340
350
360
370
380
390
400
410
420
430
440
450
460
470
480
490
500
510
520
530
540
550
560
570
580
590
600
610
620
630
640
650
660
670
680
690
700
710
720
730
740
750
760
770
780
790
800
810
820
830
840
850
860
870
880
890
900
910
920
930
940
950
960
970
980
990
1000
</DataArray>
<DataArray type="Float32" format="ascii">
0
</DataArray>
<DataArray type="Float32" format="ascii">
0
</DataArray>
</Coordinates>
<CellData>
<DataArray Name="h" type="Float32" format="ascii">
15
15
15
15
15
15
14.9999
14.9997
14.9989
14.9962
14.9889
14.9711
14.9338
14.8651
14.7542
14.5958
14.3944
14.1663
13.9372
13.737
13.5899
13.5036
13.4671
13.459
13.4611
13.4646
13.4673
13.4692
13.4703
13.4695
13.4619
13.4324
13.342
13.1121
12.6342
11.8795
11.0591
10.4698
10.1725
10.055
10.0156
10.0039
10.0009
10.0002
10
10
10
10
10
10
10
10
10
10
10
10.0002
10.0008
10.0037
10.0146
10.0512
10.1594
10.4324
10.9801
11.7755
12.5585
13.0848
13.3449
13.4474
13.4809
13.4896
13.4908
13.49
13.4886
13.4865
13.484
13.4831
13.4924
13.5294
13.6145
13.7584
13.9541
14.1789
14.4035
14.6023
14.7587
14.8681
14.9355
14.972
14.9893
14.9964
14.9989
14.9997
14.9999
15
15
15
15
15
15
15
</DataArray>
<DataArray Name="hu" type="Float32" format="ascii">
30
30
30
30
30
30.0001
30.0007
30.0029
30.0114
30.0384
30.1135
30.2948
30.675
31.3697
32.4804
34.043
35.99
38.1449
40.2567
42.0627
43.3703
44.13
44.4499
44.5197
44.4988
44.4647
44.4365
44.4131
44.3884
44.341
44.1929
43.7064
42.2882
38.7863
31.8225
21.6084
11.5001
4.8681
1.73905
0.5481
0.15477
0.039133
0.00880049
0.0017428
0.000302862
4.57572e-05
4.38664e-06
1.13953e-07
1.14353e-09
1.22218e-11
-7.70546e-10
-3.83545e-08
-3.39878e-06
-3.81728e-05
-0.000284713
-0.00166133
-0.00833923
-0.0368987
-0.145075
-0.510034
-1.60508
-4.46401
-10.5684
-20.2072
-30.5519
-38.0381
-41.937
-43.5275
-44.0663
-44.2236
-44.2682
-44.287
-44.3034
-44.3234
-44.3475
-44.3561
-44.2737
-43.9467
-43.1929
-41.9054
-40.1275
-38.0436
-35.9117
-33.9833
-32.4366
-31.3403
-30.6574
-30.2856
-30.1094
-30.0368
-30.0108
-30.0028
-30.0006
-30.0001
-30
-30
-30
-30
-30
-30
</DataArray>
</CellData>
</Piece>
</RectilinearGrid>
</VTKFile>
