<?xml version="1.0"?>
<VTKFile type="RectilinearGrid">
<RectilinearGrid WholeExtent="0 100 0 0 0 0">
<Piece Extent="0 100 0 0 0 0">
<Coordinates>
<DataArray type="Float32" format="ascii">
0
10
20
30
40
50
60
70
80
90
100
110
120
130
140
150
160
170
180
190
200
210
220
230
240
250
260
270
280
290
300
310
320
330
340
350
360
370
380
390
400
410
420
430
440
450
460
470
480
490
500
510
520
530
540
550
560
570
580
590
600
610
620
630
640
650
660
670
680
690
700
710
720
730
740
750
760
770
780
790
800
810
820
830
840
850
860
870
880
890
900
910
920
930
940
950
960
970
980
990
1000
</DataArray>
<DataArray type="Float32" format="ascii">
0
</DataArray>
<DataArray type="Float32" format="ascii">
0
</DataArray>
</Coordinates>
<CellData>
<DataArray Name="h" type="Float32" format="ascii">
15
15
15
15
15
15
15
15
15
15
15
15
15
15
15
15
14.9998
14.9987
14.9922
14.9643
14.8766
14.6719
14.319
13.883
13.5403
13.3863
13.1653
12.493
11.433
10.5514
10.1461
10.0284
10.0041
10.0005
10
10
10
10
10
10
10
10
10
10
10
10
10
10
10
10
10
10
10
10
10
10
10
10
10
10
10
10
10
10
10
10.0004
10.004
10.0271
10.139
10.5241
11.3745
12.4475
13.1697
13.4155
13.5762
13.9133
14.3395
14.6836
14.882
14.9662
14.9926
14.9988
14.9999
15
15
15
15
15
15
15
15
15
15
15
15
15
15
15
15
15
</DataArray>
<DataArray Name="hu" type="Float32" format="ascii">
30
30
30
30
30
30
30
30
30
30
30
30
30
30
30
30.0001
30.0016
30.013
30.0796
30.3629
31.2472
33.2706
36.6452
40.6467
43.7082
44.1404
40.3163
30.2722
16.2021
5.81192
1.4754
0.282073
0.0410522
0.00446101
0.000350347
1.96886e-05
3.14177e-07
5.79584e-10
0
0
0
0
0
0
0
0
0
0
0
0
0
0
0
0
0
0
0
0
0
0
0
-5.73195e-10
-3.13165e-07
-1.76874e-05
-0.000336482
-0.00429269
-0.039392
-0.269588
-1.40308
-5.50698
-15.4479
-29.4148
-39.842
-43.9022
-43.4787
-40.4214
-36.4684
-33.1592
-31.1935
-30.3439
-30.0748
-30.0121
-30.0014
-30.0001
-30
-30
-30
-30
-30
-30
-30
-30
-30
-30
-30
-30
-30
-30
-30
-30
</DataArray>
</CellData>
</Piece>
</RectilinearGrid>
</VTKFile>
