<?xml version="1.0"?>
<VTKFile type="RectilinearGrid">
<RectilinearGrid WholeExtent="0 100 0 0 0 0">
<Piece Extent="0 100 0 0 0 0">
<Coordinates>
<DataArray type="Float32" format="ascii">
0
10
20
30
40
50
60
70
80
90
100
110
120
130
140
150
160
170
180
190
200
210
220
230
240
250
260
270
280
290
300
310
320
330
340
350
360
370
380
390
400
410
420
430
440
450
460
470
480
490
500
510
520
530
540
550
560
570
580
590
600
610
620
630
640
650
660
670
680
690
700
710
720
730
740
750
760
770
780
790
800
810
820
830
840
850
860
870
880
890
900
910
920
930
940
950
960
970
980
990
1000
</DataArray>
<DataArray type="Float32" format="ascii">
0
</DataArray>
<DataArray type="Float32" format="ascii">
0
</DataArray>
</Coordinates>
<CellData>
<DataArray Name="h" type="Float32" format="ascii">
14.9997
14.999
14.9972
14.9929
14.9835
14.9652
14.9325
14.8795
14.8007
14.6929
14.5566
14.3965
14.2211
14.0424
13.8739
13.7285
13.6156
13.5386
13.494
13.4734
13.4669
13.4668
13.4687
13.4708
13.4725
13.4739
13.475
13.4759
13.4767
13.4774
13.4779
13.4783
13.4786
13.4787
13.478
13.4751
13.4658
13.4385
13.3667
13.1953
12.8353
12.2157
11.426
10.7365
10.3165
10.1198
10.0416
10.0134
10.0043
10.0022
10.004
10.0124
10.0379
10.1083
10.2837
10.6602
11.2992
12.0835
12.7528
13.1653
13.3662
13.4503
13.4819
13.4927
13.4959
13.4967
13.4967
13.4965
13.4961
13.4957
13.4952
13.4946
13.4939
13.4931
13.492
13.4908
13.4893
13.4881
13.489
13.4963
13.5173
13.5613
13.6366
13.7467
13.8887
14.0538
14.2296
14.4028
14.5614
14.6965
14.8034
14.8814
14.9338
14.966
14.984
14.9931
14.9973
14.999
14.9997
14.9999
</DataArray>
<DataArray Name="hu" type="Float32" format="ascii">
30.0034
30.0104
30.0288
30.0729
30.1684
30.3556
30.6883
31.2262
32.0198
33.0937
34.4334
35.9822
37.647
39.311
40.8515
42.1599
43.1634
43.8423
44.2336
44.4146
44.4712
44.4712
44.4535
44.4343
44.4179
44.4042
44.3924
44.3822
44.373
44.3647
44.3572
44.3501
44.3428
44.3331
44.3134
44.2603
44.1062
43.676
42.5621
39.9492
34.6329
25.9907
15.8621
7.78664
3.23089
1.20129
0.413105
0.132123
0.0371137
0.00072662
-0.0340937
-0.121601
-0.376832
-1.08406
-2.88644
-6.93264
-14.298
-24.1253
-33.2048
-39.1651
-42.1893
-43.4843
-43.9788
-44.1516
-44.2082
-44.2267
-44.2342
-44.239
-44.2435
-44.2484
-44.2538
-44.26
-44.267
-44.2751
-44.2847
-44.2963
-44.3096
-44.3202
-44.3123
-44.2482
-44.0631
-43.6744
-43.0071
-42.0233
-40.739
-39.2223
-37.5784
-35.9289
-34.3913
-33.0602
-31.9939
-31.2071
-30.6753
-30.3476
-30.164
-30.0707
-30.0278
-30.01
-30.0032
-30.001
</DataArray>
</CellData>
</Piece>
</RectilinearGrid>
</VTKFile>
