<?xml version="1.0"?>
<VTKFile type="RectilinearGrid">
<RectilinearGrid WholeExtent="0 100 0 0 0 0">
<Piece Extent="0 100 0 0 0 0">
<Coordinates>
<DataArray type="Float32" format="ascii">
0
10
20
30
40
50
60
70
80
90
100
110
120
130
140
150
160
170
180
190
200
210
220
230
240
250
260
270
280
290
300
310
320
330
340
350
360
370
380
390
400
410
420
430
440
450
460
470
480
490
500
510
520
530
540
550
560
570
580
590
600
610
620
630
640
650
660
670
680
690
700
710
720
730
740
750
760
770
780
790
800
810
820
830
840
850
860
870
880
890
900
910
920
930
940
950
960
970
980
990
1000
</DataArray>
<DataArray type="Float32" format="ascii">
0
</DataArray>
<DataArray type="Float32" format="ascii">
0
</DataArray>
</Coordinates>
<CellData>
<DataArray Name="h" type="Float32" format="ascii">
15
15
15
15
15
15
15
15
15
15
15
15
15
15
15
15
15
15
15
15
14.9997
14.9948
14.9505
14.7276
14.1138
12.4337
10.9387
10.1759
10.0174
10.0009
10
10
10
10
10
10
10
10
10
10
10
10
10
10
10
10
10
10
10
10
10
10
10
10
10
10
10
10
10
10
10
10
10
10
10
10
10
10
10
10.0009
10.0168
10.1694
10.9061
12.4059
14.1603
14.7446
14.954
14.9952
14.9997
15
15
15
15
15
15
15
15
15
15
15
15
15
15
15
15
15
15
15
15
15
</DataArray>
<DataArray Name="hu" type="Float32" format="ascii">
30
30
30
30
30
30
30
30
30
30
30
30
30
30
30
30
30
30
30
30.0001
30.003
30.053
30.4995
32.6817
38.5114
30.7149
10.5837
1.80598
0.172864
0.00898546
0.000195158
0
0
0
0
0
0
0
0
0
0
0
0
0
0
0
0
0
0
0
0
0
0
0
0
0
0
0
0
0
0
0
0
0
0
0
0
0
-0.000189039
-0.00868763
-0.166754
-1.73635
-10.1827
-30.0938
-38.1054
-32.5206
-30.4641
-30.0489
-30.0027
-30.0001
-30
-30
-30
-30
-30
-30
-30
-30
-30
-30
-30
-30
-30
-30
-30
-30
-30
-30
-30
-30
</DataArray>
</CellData>
</Piece>
</RectilinearGrid>
</VTKFile>
