<?xml version="1.0"?>
<VTKFile type="RectilinearGrid">
<RectilinearGrid WholeExtent="0 100 0 0 0 0">
<Piece Extent="0 100 0 0 0 0">
<Coordinates>
<DataArray type="Float32" format="ascii">
0
10
20
30
40
50
60
70
80
90
100
110
120
130
140
150
160
170
180
190
200
210
220
230
240
250
260
270
280
290
300
310
320
330
340
350
360
370
380
390
400
410
420
430
440
450
460
470
480
490
500
510
520
530
540
550
560
570
580
590
600
610
620
630
640
650
660
670
680
690
700
710
720
730
740
750
760
770
780
790
800
810
820
830
840
850
860
870
880
890
900
910
920
930
940
950
960
970
980
990
1000
</DataArray>
<DataArray type="Float32" format="ascii">
0
</DataArray>
<DataArray type="Float32" format="ascii">
0
</DataArray>
</Coordinates>
<CellData>
<DataArray Name="h" type="Float32" format="ascii">
14.9113
14.8593
14.7884
14.6974
14.587
14.4599
14.3203
14.1744
14.0289
13.8915
13.7689
13.6668
13.5883
13.5334
13.4992
13.4808
13.4729
13.4707
13.4712
13.4725
13.474
13.4752
13.4763
13.4772
13.478
13.4786
13.4792
13.4797
13.4801
13.4804
13.4807
13.481
13.4813
13.4815
13.4816
13.4818
13.4819
13.482
13.482
13.4819
13.4816
13.4807
13.4781
13.4715
13.4561
13.4223
13.3552
13.2398
13.0887
12.9854
13.0328
13.1892
13.3343
13.4228
13.4668
13.4864
13.4945
13.4975
13.4986
13.4989
13.499
13.4989
13.4988
13.4987
13.4986
13.4985
13.4983
13.4981
13.4979
13.4977
13.4974
13.4971
13.4968
13.4963
13.4959
13.4953
13.4946
13.4938
13.4929
13.4919
13.4911
13.4912
13.4939
13.5023
13.5208
13.5544
13.608
13.6845
13.7839
13.9037
14.0384
14.1815
14.3257
14.4639
14.5902
14.7
14.7905
14.861
14.9128
14.9483
</DataArray>
<DataArray Name="hu" type="Float32" format="ascii">
30.8931
31.4241
32.1402
33.0491
34.1387
35.3772
36.7159
38.0941
39.4453
40.7034
41.8099
42.7212
43.4162
43.8992
44.199
44.3599
44.4295
44.4482
44.4437
44.4314
44.4183
44.4065
44.3963
44.3875
44.38
44.3733
44.3675
44.3624
44.3577
44.3534
44.3495
44.3458
44.3423
44.3389
44.3356
44.3324
44.3292
44.3258
44.322
44.3165
44.3057
44.2789
44.206
44.0077
43.4854
42.1693
39.0446
32.2864
19.8377
2.04046
-16.3683
-30.11
-37.9571
-41.6756
-43.2459
-43.8629
-44.0931
-44.1753
-44.2038
-44.214
-44.2182
-44.2207
-44.2226
-44.2245
-44.2264
-44.2284
-44.2304
-44.2326
-44.2349
-44.2374
-44.2401
-44.2431
-44.2465
-44.2504
-44.255
-44.2602
-44.2663
-44.2734
-44.2817
-44.2907
-44.2981
-44.2971
-44.2729
-44.1989
-44.0367
-43.7403
-43.2667
-42.5872
-41.6954
-40.6102
-39.3722
-38.038
-36.6729
-35.3438
-34.1121
-33.0277
-32.1235
-31.4122
-30.8862
-30.522
</DataArray>
</CellData>
</Piece>
</RectilinearGrid>
</VTKFile>
