<?xml version="1.0"?>
<VTKFile type="RectilinearGrid">
<RectilinearGrid WholeExtent="0 100 0 0 0 0">
<Piece Extent="0 100 0 0 0 0">
<Coordinates>
<DataArray type="Float32" format="ascii">
0
10
20
30
40
50
60
70
80
90
100
110
120
130
140
150
160
170
180
190
200
210
220
230
240
250
260
270
280
290
300
310
320
330
340
350
360
370
380
390
400
410
420
430
440
450
460
470
480
490
500
510
520
530
540
550
560
570
580
590
600
610
620
630
640
650
660
670
680
690
700
710
720
730
740
750
760
770
780
790
800
810
820
830
840
850
860
870
880
890
900
910
920
930
940
950
960
970
980
990
1000
</DataArray>
<DataArray type="Float32" format="ascii">
0
</DataArray>
<DataArray type="Float32" format="ascii">
0
</DataArray>
</Coordinates>
<CellData>
<DataArray Name="h" type="Float32" format="ascii">
14.9999
14.9997
14.9991
14.9973
14.9929
14.9833
14.9641
14.9295
14.8728
14.7883
14.6727
14.5272
14.3575
14.1741
13.9906
13.8223
13.6825
13.5796
13.5147
13.481
13.468
13.4656
13.4671
13.4693
13.4713
13.4729
13.4741
13.4752
13.476
13.4768
13.4773
13.4778
13.478
13.4775
13.4749
13.4661
13.4397
13.3688
13.1975
12.8356
12.2114
11.4172
10.727
10.3094
10.1157
10.0394
10.0124
10.0036
10.001
10.0005
10.001
10.0034
10.0115
10.0361
10.105
10.2786
10.6544
11.2955
12.0843
12.7569
13.1699
13.3696
13.4522
13.4826
13.4927
13.4956
13.4962
13.4961
13.4958
13.4953
13.4948
13.4941
13.4933
13.4924
13.4912
13.4898
13.4882
13.4875
13.4908
13.5044
13.5381
13.6019
13.7022
13.8387
14.0035
14.1837
14.3646
14.5325
14.6767
14.7912
14.8749
14.9309
14.965
14.9838
14.9932
14.9974
14.9991
14.9997
14.9999
15
</DataArray>
<DataArray Name="hu" type="Float32" format="ascii">
30.0009
30.003
30.0097
30.0278
30.0723
30.1706
30.3665
30.7192
31.2936
32.1437
33.2928
34.7191
36.3533
38.0861
39.785
41.3159
42.5679
43.4787
44.0505
44.3461
44.4599
44.4801
44.4658
44.4449
44.4262
44.4106
44.3975
44.3861
44.376
44.3668
44.3583
44.3499
44.3398
44.3211
44.2713
44.1245
43.7059
42.604
39.9912
34.6441
25.9386
15.7572
7.68081
3.15688
1.15925
0.392326
0.123422
0.0359488
0.00920943
0.000140655
-0.00856541
-0.0334618
-0.114076
-0.359346
-1.05085
-2.83377
-6.86972
-14.2572
-24.1402
-33.2678
-39.2387
-42.2474
-43.5211
-43.9993
-44.1626
-44.2148
-44.2319
-44.2395
-44.245
-44.2505
-44.2566
-44.2634
-44.2712
-44.2803
-44.2911
-44.3043
-44.3185
-44.3249
-44.2961
-44.1757
-43.8788
-43.3145
-42.4208
-41.1923
-39.6864
-38.0095
-36.294
-34.6725
-33.2559
-32.1153
-31.2728
-30.7052
-30.358
-30.1659
-30.07
-30.0268
-30.0093
-30.0029
-30.0008
-30.0002
</DataArray>
</CellData>
</Piece>
</RectilinearGrid>
</VTKFile>
