<?xml version="1.0"?>
<VTKFile type="RectilinearGrid">
<RectilinearGrid WholeExtent="0 100 0 0 0 0">
<Piece Extent="0 100 0 0 0 0">
<Coordinates>
<DataArray type="Float32" format="ascii">
0
10
20
30
40
50
60
70
80
90
100
110
120
130
140
150
160
170
180
190
200
210
220
230
240
250
260
270
280
290
300
310
320
330
340
350
360
370
380
390
400
410
420
430
440
450
460
470
480
490
500
510
520
530
540
550
560
570
580
590
600
610
620
630
640
650
660
670
680
690
700
710
720
730
740
750
760
770
780
790
800
810
820
830
840
850
860
870
880
890
900
910
920
930
940
950
960
970
980
990
1000
</DataArray>
<DataArray type="Float32" format="ascii">
0
</DataArray>
<DataArray type="Float32" format="ascii">
0
</DataArray>
</Coordinates>
<CellData>
<DataArray Name="h" type="Float32" format="ascii">
15
15
15
15
15
15
15
15
15
15
15
14.9999
14.9997
14.9984
14.9936
14.9781
14.9376
14.8504
14.6943
14.4613
14.1707
13.8729
13.6333
13.4958
13.4508
13.4499
13.4535
13.4397
13.3654
13.1294
12.591
11.7384
10.877
10.3336
10.1011
10.0254
10.0054
10.001
10.0001
10
10
10
10
10
10
10
10
10
10
10
10
10
10
10
10
10
10
10
10
10
10.0001
10.0009
10.0051
10.0241
10.0951
10.3126
10.8233
11.6574
12.5323
13.116
13.3782
13.4613
13.4778
13.4758
13.4787
13.5251
13.6609
13.8955
14.1873
14.4727
14.7018
14.8548
14.9398
14.979
14.9939
14.9985
14.9997
15
15
15
15
15
15
15
15
15
15
15
15
15
</DataArray>
<DataArray Name="hu" type="Float32" format="ascii">
30
30
30
30
30
30
30
30
30
30
30.0001
30.0005
30.0032
30.016
30.0657
30.2236
30.6348
31.5148
33.0668
35.3336
38.0798
40.8104
42.9542
44.1667
44.5595
44.5552
44.4468
44.1183
42.8815
39.221
31.3373
19.8752
9.42622
3.42341
1.01277
0.252744
0.0534793
0.00952024
0.00140615
0.000169367
1.69159e-05
4.88079e-07
3.31829e-09
4.14667e-11
1.19972e-13
2.07815e-16
0
0
0
0
0
0
0
-2.05524e-16
-1.19529e-13
-4.07351e-11
-3.2654e-09
-4.85389e-07
-1.47455e-05
-0.000162745
-0.0013481
-0.00908839
-0.0508652
-0.239183
-0.952549
-3.20039
-8.80483
-18.7937
-30.2955
-38.6255
-42.6122
-43.9597
-44.3021
-44.3968
-44.3793
-43.969
-42.7597
-40.6412
-37.9449
-35.2319
-32.9961
-31.4715
-30.6125
-30.2142
-30.0625
-30.0151
-30.003
-30.0005
-30.0001
-30
-30
-30
-30
-30
-30
-30
-30
-30
-30
-30
</DataArray>
</CellData>
</Piece>
</RectilinearGrid>
</VTKFile>
