<?xml version="1.0"?>
<VTKFile type="RectilinearGrid">
<RectilinearGrid WholeExtent="0 100 0 0 0 0">
<Piece Extent="0 100 0 0 0 0">
<Coordinates>
<DataArray type="Float32" format="ascii">
0
10
20
30
40
50
60
70
80
90
100
110
120
130
140
150
160
170
180
190
200
210
220
230
240
250
260
270
280
290
300
310
320
330
340
350
360
370
380
390
400
410
420
430
440
450
460
470
480
490
500
510
520
530
540
550
560
570
580
590
600
610
620
630
640
650
660
670
680
690
700
710
720
730
740
750
760
770
780
790
800
810
820
830
840
850
860
870
880
890
900
910
920
930
940
950
960
970
980
990
1000
</DataArray>
<DataArray type="Float32" format="ascii">
0
</DataArray>
<DataArray type="Float32" format="ascii">
0
</DataArray>
</Coordinates>
<CellData>
<DataArray Name="h" type="Float32" format="ascii">
15
15
15
15
15
15
15
14.9999
14.9998
14.999
14.9964
14.9888
14.97
14.9294
14.8536
14.7305
14.5551
14.335
14.0917
13.8573
13.6658
13.5393
13.4771
13.4583
13.4583
13.4622
13.4654
13.4675
13.4678
13.4625
13.4375
13.3555
13.1375
12.6707
11.9164
11.0813
10.4761
10.1717
10.0533
10.0146
10.0035
10.0007
10.0001
10
10
10
10
10
10
10
10
10
10
10
10
10
10.0001
10.0007
10.0033
10.0137
10.0497
10.1593
10.4399
11.0049
11.8177
12.6023
13.1159
13.3615
13.4541
13.4823
13.4887
13.4888
13.4873
13.4849
13.482
13.4834
13.5033
13.5654
13.6895
13.8767
14.1063
14.3456
14.5626
14.7356
14.8569
14.9313
14.971
14.9893
14.9965
14.999
14.9998
15
15
15
15
15
15
15
15
15
</DataArray>
<DataArray Name="hu" type="Float32" format="ascii">
30
30
30
30
30
30
30.0001
30.0005
30.0025
30.0104
30.0369
30.114
30.3064
30.7196
31.4854
32.7154
34.4379
36.5531
38.8338
40.977
42.6926
43.8111
44.3578
44.5213
44.5184
44.4801
44.4463
44.4167
44.3737
44.2507
43.8284
42.5306
39.1947
32.3612
22.0994
11.7668
4.93748
1.73134
0.530696
0.144388
0.0348325
0.0073988
0.00136986
0.00021803
2.93346e-05
3.09896e-06
2.93585e-08
5.56785e-10
3.16462e-12
3.8803e-16
-3.14161e-12
-2.02437e-10
-2.09402e-08
-9.67931e-07
-2.44745e-05
-0.000208068
-0.001306
-0.00702376
-0.0329288
-0.135743
-0.495491
-1.60398
-4.54635
-10.8609
-20.7547
-31.1733
-38.5153
-42.2155
-43.662
-44.1249
-44.2523
-44.2899
-44.3116
-44.3359
-44.3623
-44.351
-44.175
-43.6258
-42.5208
-40.8315
-38.718
-36.4634
-34.3697
-32.6657
-31.4522
-30.7
-30.2964
-30.1097
-30.0353
-30.0099
-30.0024
-30.0005
-30.0001
-30
-30
-30
-30
-30
-30
-30
</DataArray>
</CellData>
</Piece>
</RectilinearGrid>
</VTKFile>
