<?xml version="1.0"?>
<VTKFile type="RectilinearGrid">
<RectilinearGrid WholeExtent="0 100 0 0 0 0">
<Piece Extent="0 100 0 0 0 0">
<Coordinates>
<DataArray type="Float32" format="ascii">
0
10
20
30
40
50
60
70
80
90
100
110
120
130
140
150
160
170
180
190
200
210
220
230
240
250
260
270
280
290
300
310
320
330
340
350
360
370
380
390
400
410
420
430
440
450
460
470
480
490
500
510
520
530
540
550
560
570
580
590
600
610
620
630
640
650
660
670
680
690
700
710
720
730
740
750
760
770
780
790
800
810
820
830
840
850
860
870
880
890
900
910
920
930
940
950
960
970
980
990
1000
</DataArray>
<DataArray type="Float32" format="ascii">
0
</DataArray>
<DataArray type="Float32" format="ascii">
0
</DataArray>
</Coordinates>
<CellData>
<DataArray Name="h" type="Float32" format="ascii">
15
15
15
15
15
15
15
15
15
15
15
15
15
15
15
15
15
15
14.9996
14.9963
14.9764
14.8944
14.6623
14.2188
13.6921
13.2278
12.516
11.3249
10.4271
10.0879
10.0123
10.0012
10.0001
10
10
10
10
10
10
10
10
10
10
10
10
10
10
10
10
10
10
10
10
10
10
10
10
10
10
10
10
10
10
10
10
10
10.0001
10.0011
10.0119
10.0842
10.408
11.275
12.4793
13.2482
13.7317
14.2468
14.677
14.9
14.9779
14.9966
14.9996
15
15
15
15
15
15
15
15
15
15
15
15
15
15
15
15
15
15
15
</DataArray>
<DataArray Name="hu" type="Float32" format="ascii">
30
30
30
30
30
30
30
30
30
30
30
30
30
30
30
30
30
30.0003
30.004
30.0373
30.2392
31.0658
33.3492
37.5319
42.3398
41.9605
30.9241
14.9971
4.47268
0.883384
0.122483
0.011787
0.000746363
2.78059e-05
2.4762e-07
0
0
0
0
0
0
0
0
0
0
0
0
0
0
0
0
0
0
0
0
0
0
0
0
0
0
0
0
0
-2.4489e-07
-2.74192e-05
-0.000720521
-0.0113588
-0.117687
-0.845284
-4.26266
-14.358
-30.1588
-41.5496
-42.0676
-37.2964
-33.2102
-31.01
-30.2243
-30.0347
-30.0037
-30.0002
-30
-30
-30
-30
-30
-30
-30
-30
-30
-30
-30
-30
-30
-30
-30
-30
-30
-30
</DataArray>
</CellData>
</Piece>
</RectilinearGrid>
</VTKFile>
