<?xml version="1.0"?>
<VTKFile type="RectilinearGrid">
<RectilinearGrid WholeExtent="0 100 0 0 0 0">
<Piece Extent="0 100 0 0 0 0">
<Coordinates>
<DataArray type="Float32" format="ascii">
0
10
20
30
40
50
60
70
80
90
100
110
120
130
140
150
160
170
180
190
200
210
220
230
240
250
260
270
280
290
300
310
320
330
340
350
360
370
380
390
400
410
420
430
440
450
460
470
480
490
500
510
520
530
540
550
560
570
580
590
600
610
620
630
640
650
660
670
680
690
700
710
720
730
740
750
760
770
780
790
800
810
820
830
840
850
860
870
880
890
900
910
920
930
940
950
960
970
980
990
1000
</DataArray>
<DataArray type="Float32" format="ascii">
0
</DataArray>
<DataArray type="Float32" format="ascii">
0
</DataArray>
</Coordinates>
<CellData>
<DataArray Name="h" type="Float32" format="ascii">
15
15
15
15
15
15
15
15
15
14.9999
14.9996
14.9982
14.9936
14.9803
14.948
14.8814
14.764
14.586
14.3527
14.0888
13.8348
13.6341
13.5124
13.4626
13.454
13.4579
13.4619
13.4633
13.4568
13.4227
13.3081
13.0102
12.4151
11.5678
10.7801
10.3032
10.0973
10.0268
10.0064
10.0013
10.0002
10
10
10
10
10
10
10
10
10
10
10
10
10
10
10
10
10
10.0002
10.0013
10.0061
10.0252
10.091
10.2821
10.7262
11.4796
12.3373
12.9785
13.3104
13.4392
13.4776
13.4854
13.4848
13.4817
13.4792
13.4894
13.5398
13.6597
13.856
14.1048
14.3641
14.5939
14.7692
14.8846
14.9497
14.981
14.9939
14.9983
14.9996
14.9999
15
15
15
15
15
15
15
15
15
15
</DataArray>
<DataArray Name="hu" type="Float32" format="ascii">
30
30
30
30
30
30
30
30
30.0001
30.0009
30.0043
30.0182
30.0655
30.2011
30.5297
31.2041
32.3806
34.1341
36.3795
38.8525
41.1709
42.9646
44.0389
44.4751
44.5479
44.5078
44.461
44.4038
44.2424
43.6628
41.8551
37.3397
28.812
17.6789
8.30387
3.09846
0.974205
0.266149
0.063496
0.0131507
0.00234135
0.000352893
4.49604e-05
4.02879e-06
8.93622e-08
4.98639e-10
3.63741e-12
3.98609e-14
1.13358e-16
2.10967e-21
-1.12918e-16
-3.91808e-14
-3.57858e-12
-4.95374e-10
-2.90578e-08
-3.23656e-06
-3.98139e-05
-0.000336643
-0.00223509
-0.0125053
-0.0601017
-0.25049
-0.910612
-2.87628
-7.6911
-16.546
-27.5835
-36.5393
-41.4758
-43.4755
-44.1084
-44.2744
-44.3236
-44.3585
-44.3831
-44.2936
-43.8479
-42.7818
-41.0131
-38.726
-36.2818
-34.0611
-32.3298
-31.1725
-30.5127
-30.1934
-30.0626
-30.0173
-30.0041
-30.0008
-30.0001
-30
-30
-30
-30
-30
-30
-30
-30
-30
</DataArray>
</CellData>
</Piece>
</RectilinearGrid>
</VTKFile>
