<?xml version="1.0"?>
<VTKFile type="RectilinearGrid">
<RectilinearGrid WholeExtent="0 100 0 0 0 0">
<Piece Extent="0 100 0 0 0 0">
<Coordinates>
<DataArray type="Float32" format="ascii">
0
10
20
30
40
50
60
70
80
90
100
110
120
130
140
150
160
170
180
190
200
210
220
230
240
250
260
270
280
290
300
310
320
330
340
350
360
370
380
390
400
410
420
430
440
450
460
470
480
490
500
510
520
530
540
550
560
570
580
590
600
610
620
630
640
650
660
670
680
690
700
710
720
730
740
750
760
770
780
790
800
810
820
830
840
850
860
870
880
890
900
910
920
930
940
950
960
970
980
990
1000
</DataArray>
<DataArray type="Float32" format="ascii">
0
</DataArray>
<DataArray type="Float32" format="ascii">
0
</DataArray>
</Coordinates>
<CellData>
<DataArray Name="h" type="Float32" format="ascii">
14.9892
14.9775
14.9566
14.9222
14.8697
14.7953
14.6972
14.5758
14.4345
14.2794
14.1185
13.9615
13.818
13.6966
13.6026
13.5375
13.4981
13.478
13.4703
13.4688
13.4699
13.4716
13.4732
13.4746
13.4757
13.4766
13.4774
13.4781
13.4787
13.4791
13.4795
13.4799
13.4802
13.4804
13.4806
13.4807
13.4806
13.48
13.478
13.4717
13.4543
13.4086
13.298
13.0533
12.5844
11.8742
11.1064
10.5398
10.2464
10.1568
10.2237
10.4772
10.9849
11.7175
12.4594
12.991
13.2808
13.4132
13.4674
13.4879
13.495
13.4974
13.498
13.4981
13.498
13.4978
13.4976
13.4974
13.4971
13.4968
13.4965
13.4961
13.4956
13.495
13.4943
13.4935
13.4925
13.4913
13.4902
13.4897
13.4918
13.5002
13.5204
13.5593
13.6229
13.7144
13.8329
13.9733
14.1275
14.286
14.4395
14.5796
14.7001
14.7976
14.8714
14.9234
14.9575
14.978
14.9895
14.9953
</DataArray>
<DataArray Name="hu" type="Float32" format="ascii">
30.1097
30.2294
30.4428
30.7938
31.3263
32.0748
33.0533
34.2488
35.6201
37.1016
38.6112
40.0599
41.3629
42.4512
43.2843
43.858
44.2044
44.38
44.4479
44.46
44.4498
44.4341
44.4192
44.4064
44.3955
44.3861
44.3779
44.3707
44.3643
44.3585
44.3532
44.3483
44.3437
44.3391
44.3345
44.3294
44.3221
44.3076
44.2706
44.1686
43.8924
43.1829
41.4836
37.8034
31.0365
21.4656
11.9643
5.43093
1.9643
0.0884827
-1.67439
-4.73585
-10.5321
-19.4056
-29.124
-36.5918
-40.8756
-42.8906
-43.7287
-44.0498
-44.1651
-44.2047
-44.2184
-44.2241
-44.2274
-44.2302
-44.233
-44.2358
-44.2389
-44.2422
-44.2459
-44.2502
-44.255
-44.2607
-44.2672
-44.2748
-44.2838
-44.2942
-44.3045
-44.3085
-44.2898
-44.2163
-44.0383
-43.6954
-43.1324
-42.3168
-41.2502
-39.9698
-38.5413
-37.0478
-35.5781
-34.2152
-33.026
-32.0529
-31.3094
-30.7816
-30.4348
-30.2247
-30.1075
-30.0474
</DataArray>
</CellData>
</Piece>
</RectilinearGrid>
</VTKFile>
