<?xml version="1.0"?>
<VTKFile type="RectilinearGrid">
<RectilinearGrid WholeExtent="0 100 0 0 0 0">
<Piece Extent="0 100 0 0 0 0">
<Coordinates>
<DataArray type="Float32" format="ascii">
0
10
20
30
40
50
60
70
80
90
100
110
120
130
140
150
160
170
180
190
200
210
220
230
240
250
260
270
280
290
300
310
320
330
340
350
360
370
380
390
400
410
420
430
440
450
460
470
480
490
500
510
520
530
540
550
560
570
580
590
600
610
620
630
640
650
660
670
680
690
700
710
720
730
740
750
760
770
780
790
800
810
820
830
840
850
860
870
880
890
900
910
920
930
940
950
960
970
980
990
1000
</DataArray>
<DataArray type="Float32" format="ascii">
0
</DataArray>
<DataArray type="Float32" format="ascii">
0
</DataArray>
</Coordinates>
<CellData>
<DataArray Name="h" type="Float32" format="ascii">
13.7232
13.6514
13.5929
13.5477
13.515
13.4931
13.4799
13.4729
13.47
13.4697
13.4706
13.472
13.4736
13.4751
13.4764
13.4776
13.4786
13.4794
13.4801
13.4807
13.4813
13.4817
13.482
13.4824
13.4827
13.483
13.4834
13.4842
13.4861
13.491
13.5035
13.5351
13.6112
13.7838
14.1358
14.738
15.5368
16.3206
16.8965
17.2336
17.4029
17.48
17.5128
17.5261
17.5312
17.533
17.5337
17.5339
17.5339
17.5338
17.5337
17.5336
17.5332
17.5326
17.5308
17.5265
17.5153
17.4875
17.4218
17.2744
16.9716
16.432
15.6619
14.8448
14.2109
13.8323
13.643
13.5581
13.5225
13.5082
13.5026
13.5005
13.4997
13.4993
13.499
13.4988
13.4986
13.4984
13.4981
13.4978
13.4974
13.4969
13.4964
13.4957
13.4949
13.494
13.4929
13.4919
13.4909
13.4905
13.4914
13.4946
13.5018
13.515
13.5365
13.5682
13.612
13.6688
13.7384
13.8201
</DataArray>
<DataArray Name="hu" type="Float32" format="ascii">
41.8854
42.5456
43.0856
43.5062
43.8165
44.0318
44.1716
44.2562
44.3037
44.3285
44.3409
44.347
44.3503
44.3525
44.3542
44.3554
44.3562
44.3566
44.3566
44.356
44.3551
44.3539
44.3524
44.3507
44.3488
44.3464
44.3428
44.3358
44.3192
44.2772
44.1697
43.8991
43.2396
41.7114
38.4629
32.5361
24.0341
15.0447
8.04393
3.78747
1.60361
0.597185
0.16467
-0.0124121
-0.0828715
-0.111179
-0.123673
-0.130528
-0.135522
-0.140016
-0.144565
-0.149682
-0.156501
-0.168155
-0.193017
-0.252828
-0.401408
-0.765176
-1.6225
-3.52515
-7.35947
-13.9464
-22.8078
-31.5308
-37.7938
-41.3036
-42.9861
-43.7237
-44.03
-44.1522
-44.1997
-44.218
-44.2253
-44.2286
-44.2306
-44.2322
-44.2336
-44.235
-44.2363
-44.2374
-44.2384
-44.2391
-44.2395
-44.2395
-44.2391
-44.2381
-44.2363
-44.233
-44.2263
-44.213
-44.1869
-44.1383
-44.0534
-43.9149
-43.7032
-43.3995
-42.9885
-42.4607
-41.8144
-41.0558
</DataArray>
</CellData>
</Piece>
</RectilinearGrid>
</VTKFile>
