<?xml version="1.0"?>
<VTKFile type="RectilinearGrid">
<RectilinearGrid WholeExtent="0 100 0 0 0 0">
<Piece Extent="0 100 0 0 0 0">
<Coordinates>
<DataArray type="Float32" format="ascii">
0
10
20
30
40
50
60
70
80
90
100
110
120
130
140
150
160
170
180
190
200
210
220
230
240
250
260
270
280
290
300
310
320
330
340
350
360
370
380
390
400
410
420
430
440
450
460
470
480
490
500
510
520
530
540
550
560
570
580
590
600
610
620
630
640
650
660
670
680
690
700
710
720
730
740
750
760
770
780
790
800
810
820
830
840
850
860
870
880
890
900
910
920
930
940
950
960
970
980
990
1000
</DataArray>
<DataArray type="Float32" format="ascii">
0
</DataArray>
<DataArray type="Float32" format="ascii">
0
</DataArray>
</Coordinates>
<CellData>
<DataArray Name="h" type="Float32" format="ascii">
13.5638
13.5266
13.4999
13.4823
13.4717
13.4661
13.464
13.464
13.465
13.4666
13.4683
13.47
13.4717
13.4733
13.4747
13.476
13.4772
13.4782
13.4792
13.48
13.4808
13.4815
13.4821
13.483
13.4845
13.4877
13.4957
13.5152
13.5625
13.6723
13.9093
14.359
15.054
15.8693
16.5777
17.0502
17.3103
17.4369
17.4941
17.5186
17.5286
17.5326
17.5341
17.5347
17.5349
17.535
17.5351
17.535
17.535
17.535
17.5349
17.5348
17.5347
17.5346
17.5344
17.534
17.5334
17.532
17.5285
17.5199
17.499
17.4497
17.3387
17.1049
16.665
15.9779
15.1565
14.4371
13.9627
13.7082
13.5881
13.5355
13.5136
13.5047
13.5012
13.4997
13.4989
13.4984
13.498
13.4975
13.4969
13.4962
13.4954
13.4945
13.4935
13.4924
13.4911
13.4897
13.4883
13.4869
13.4856
13.4848
13.4851
13.4874
13.493
13.5034
13.5206
13.5463
13.5823
13.6296
</DataArray>
<DataArray Name="hu" type="Float32" format="ascii">
43.2283
43.5686
43.8165
43.9871
44.0976
44.165
44.204
44.2261
44.2394
44.2486
44.2566
44.2645
44.2726
44.2811
44.2895
44.2978
44.3055
44.3127
44.319
44.3244
44.3288
44.3321
44.3336
44.3322
44.3241
44.2997
44.2346
44.0693
43.6636
42.7058
40.5766
36.3239
29.2636
20.3073
11.9736
6.13109
2.81577
1.17438
0.427055
0.104874
-0.0287661
-0.0829411
-0.105084
-0.114857
-0.120109
-0.123797
-0.127002
-0.130126
-0.133299
-0.136546
-0.13982
-0.143123
-0.146512
-0.150078
-0.154146
-0.159628
-0.168994
-0.188787
-0.235468
-0.349107
-0.62345
-1.26658
-2.7054
-5.6914
-11.1469
-19.2534
-28.2917
-35.6151
-40.1175
-42.4132
-43.4646
-43.9174
-44.1047
-44.1795
-44.2083
-44.2188
-44.222
-44.222
-44.2205
-44.2179
-44.2143
-44.2097
-44.2042
-44.1978
-44.1906
-44.1827
-44.1742
-44.1653
-44.156
-44.1458
-44.1335
-44.1166
-44.0904
-44.0473
-43.9765
-43.8639
-43.6933
-43.4482
-43.1139
-42.6796
</DataArray>
</CellData>
</Piece>
</RectilinearGrid>
</VTKFile>
