<?xml version="1.0"?>
<VTKFile type="RectilinearGrid">
<RectilinearGrid WholeExtent="0 100 0 0 0 0">
<Piece Extent="0 100 0 0 0 0">
<Coordinates>
<DataArray type="Float32" format="ascii">
0
10
20
30
40
50
60
70
80
90
100
110
120
130
140
150
160
170
180
190
200
210
220
230
240
250
260
270
280
290
300
310
320
330
340
350
360
370
380
390
400
410
420
430
440
450
460
470
480
490
500
510
520
530
540
550
560
570
580
590
600
610
620
630
640
650
660
670
680
690
700
710
720
730
740
750
760
770
780
790
800
810
820
830
840
850
860
870
880
890
900
910
920
930
940
950
960
970
980
990
1000
</DataArray>
<DataArray type="Float32" format="ascii">
0
</DataArray>
<DataArray type="Float32" format="ascii">
0
</DataArray>
</Coordinates>
<CellData>
<DataArray Name="h" type="Float32" format="ascii">
13.6939
13.6275
13.5743
13.534
13.5055
13.487
13.4761
13.4708
13.4689
13.4691
13.4703
13.4718
13.4734
13.4749
13.4763
13.4775
13.4785
13.4794
13.4801
13.4807
13.4813
13.4817
13.4821
13.4824
13.4827
13.4831
13.4837
13.4849
13.488
13.4959
13.5158
13.5649
13.68
13.9291
14.3994
15.1154
15.9368
16.6329
17.0865
17.331
17.4477
17.4992
17.5207
17.5292
17.5324
17.5336
17.534
17.5341
17.5341
17.534
17.5339
17.5338
17.5336
17.5331
17.532
17.5291
17.5219
17.5038
17.46
17.3593
17.1428
16.7262
16.0573
15.2322
14.4886
13.9887
13.7186
13.5914
13.5364
13.5137
13.5048
13.5013
13.5
13.4994
13.4991
13.4989
13.4987
13.4984
13.4981
13.4978
13.4974
13.4969
13.4964
13.4957
13.4949
13.4939
13.4928
13.4917
13.4906
13.4899
13.4902
13.4924
13.4981
13.5089
13.5271
13.5548
13.5938
13.6453
13.7097
13.7864
</DataArray>
<DataArray Name="hu" type="Float32" format="ascii">
42.1346
42.7444
43.2355
43.6118
43.8844
44.0701
44.1886
44.2591
44.2983
44.3191
44.3299
44.336
44.3401
44.3433
44.3461
44.3485
44.3504
44.3517
44.3525
44.3528
44.3525
44.3518
44.3508
44.3494
44.3476
44.3449
44.3401
44.3295
44.3032
44.2359
44.065
43.6422
42.6362
40.3919
35.9253
28.6075
19.5265
11.2929
5.66248
2.53703
1.0215
0.346702
0.0630236
-0.0516188
-0.0972488
-0.11612
-0.12515
-0.130758
-0.135232
-0.139434
-0.143728
-0.148386
-0.154112
-0.162831
-0.179851
-0.219122
-0.31577
-0.554231
-1.12617
-2.43363
-5.20576
-10.3954
-18.3381
-27.4851
-35.1082
-39.8767
-42.3208
-43.4357
-43.911
-44.1049
-44.1814
-44.2109
-44.2224
-44.2273
-44.2297
-44.2313
-44.2327
-44.2338
-44.2348
-44.2355
-44.236
-44.2361
-44.2357
-44.2349
-44.2336
-44.2316
-44.2288
-44.2248
-44.2181
-44.2062
-44.1839
-44.143
-44.0714
-43.9531
-43.7697
-43.5021
-43.1339
-42.6536
-42.0567
-41.3464
</DataArray>
</CellData>
</Piece>
</RectilinearGrid>
</VTKFile>
