<?xml version="1.0"?>
<VTKFile type="RectilinearGrid">
<RectilinearGrid WholeExtent="0 100 0 0 0 0">
<Piece Extent="0 100 0 0 0 0">
<Coordinates>
<DataArray type="Float32" format="ascii">
0
10
20
30
40
50
60
70
80
90
100
110
120
130
140
150
160
170
180
190
200
210
220
230
240
250
260
270
280
290
300
310
320
330
340
350
360
370
380
390
400
410
420
430
440
450
460
470
480
490
500
510
520
530
540
550
560
570
580
590
600
610
620
630
640
650
660
670
680
690
700
710
720
730
740
750
760
770
780
790
800
810
820
830
840
850
860
870
880
890
900
910
920
930
940
950
960
970
980
990
1000
</DataArray>
<DataArray type="Float32" format="ascii">
0
</DataArray>
<DataArray type="Float32" format="ascii">
0
</DataArray>
</Coordinates>
<CellData>
<DataArray Name="h" type="Float32" format="ascii">
15
15
15
15
15
15
15
15
15
14.9998
14.9991
14.9965
14.9887
14.9685
14.9239
14.8393
14.7012
14.5057
14.2644
14.0063
13.7713
13.5963
13.4972
13.4601
13.4554
13.4594
13.4632
13.4651
13.4623
13.4427
13.3711
13.169
12.7188
11.9679
11.115
10.4878
10.1726
10.052
10.0136
10.0031
10.0006
10.0001
10
10
10
10
10
10
10
10
10
10
10
10
10
10
10
10.0001
10.0006
10.003
10.0128
10.0487
10.1607
10.4525
11.0407
11.8748
12.6585
13.1536
13.3805
13.4611
13.4832
13.4869
13.4857
13.4829
13.4801
13.4864
13.5243
13.6222
13.7935
14.0235
14.2769
14.5144
14.7072
14.8431
14.9261
14.9696
14.9892
14.9967
14.9991
14.9998
15
15
15
15
15
15
15
15
15
15
</DataArray>
<DataArray Name="hu" type="Float32" format="ascii">
30
30
30
30
30
30
30
30.0001
30.0004
30.0021
30.0094
30.0356
30.1152
30.3212
30.7751
31.6284
33.0037
34.9151
37.2168
39.6147
41.7451
43.3023
44.1758
44.5
44.5386
44.498
44.4565
44.4131
44.3133
43.9635
42.8157
39.7052
33.0738
22.7891
12.1731
5.0673
1.74166
0.517623
0.135099
0.0309149
0.00615418
0.00105356
0.000153994
1.92468e-05
7.68434e-07
1.6083e-08
9.02997e-11
6.67302e-13
7.1031e-15
7.89277e-20
-6.98288e-15
-6.56487e-13
-8.96857e-11
-5.44581e-09
-5.89685e-07
-1.56422e-05
-0.000144397
-0.00100546
-0.00585727
-0.0293004
-0.127365
-0.484829
-1.61936
-4.68459
-11.286
-21.4998
-31.9753
-39.0999
-42.5375
-43.808
-44.1862
-44.285
-44.32
-44.3504
-44.3769
-44.3224
-43.9872
-43.1179
-41.5821
-39.482
-37.1133
-34.8365
-32.9466
-31.5905
-30.753
-30.3102
-30.1105
-30.0339
-30.0089
-30.002
-30.0004
-30.0001
-30
-30
-30
-30
-30
-30
-30
-30
</DataArray>
</CellData>
</Piece>
</RectilinearGrid>
</VTKFile>
