<?xml version="1.0"?>
<VTKFile type="RectilinearGrid">
<RectilinearGrid WholeExtent="0 100 0 0 0 0">
<Piece Extent="0 100 0 0 0 0">
<Coordinates>
<DataArray type="Float32" format="ascii">
0
10
20
30
40
50
60
70
80
90
100
110
120
130
140
150
160
170
180
190
200
210
220
230
240
250
260
270
280
290
300
310
320
330
340
350
360
370
380
390
400
410
420
430
440
450
460
470
480
490
500
510
520
530
540
550
560
570
580
590
600
610
620
630
640
650
660
670
680
690
700
710
720
730
740
750
760
770
780
790
800
810
820
830
840
850
860
870
880
890
900
910
920
930
940
950
960
970
980
990
1000
</DataArray>
<DataArray type="Float32" format="ascii">
0
</DataArray>
<DataArray type="Float32" format="ascii">
0
</DataArray>
</Coordinates>
<CellData>
<DataArray Name="h" type="Float32" format="ascii">
13.9434
13.8412
13.7495
13.6708
13.6065
13.557
13.5214
13.4979
13.4838
13.4764
13.4735
13.473
13.4737
13.4748
13.476
13.4771
13.4781
13.4789
13.4796
13.4802
13.4806
13.4811
13.4814
13.4818
13.482
13.4823
13.4825
13.4828
13.483
13.4834
13.4841
13.486
13.4908
13.5036
13.5363
13.6163
13.7994
14.1722
14.802
15.6182
16.3957
16.95
17.2656
17.4198
17.488
17.516
17.5268
17.5307
17.532
17.5322
17.5319
17.5307
17.5272
17.5181
17.4948
17.4377
17.3058
17.0272
16.5153
15.7581
14.924
14.2574
13.8527
13.65
13.5598
13.5226
13.5081
13.5025
13.5005
13.4997
13.4993
13.4991
13.4989
13.4988
13.4986
13.4984
13.4981
13.4979
13.4976
13.4973
13.4969
13.4964
13.4959
13.4952
13.4945
13.4937
13.4931
13.4929
13.494
13.4975
13.5052
13.5194
13.5427
13.5774
13.6257
13.6882
13.7649
13.8544
13.9544
14.062
</DataArray>
<DataArray Name="hu" type="Float32" format="ascii">
39.98
40.9346
41.7849
42.5117
43.1045
43.5627
43.8958
44.1213
44.262
44.3416
44.381
44.3968
44.4002
44.3978
44.3933
44.3882
44.3833
44.3786
44.3742
44.3702
44.3664
44.3629
44.3597
44.3567
44.3539
44.3513
44.3488
44.3464
44.3437
44.34
44.3331
44.3168
44.2749
44.1653
43.8846
43.1905
41.5671
38.1123
31.8727
23.1184
14.1368
7.35909
3.35754
1.36131
0.468295
0.0969155
-0.0501509
-0.107368
-0.130988
-0.143637
-0.155711
-0.176618
-0.22512
-0.347417
-0.655378
-1.40304
-3.11049
-6.65285
-12.9415
-21.7282
-30.7108
-37.3477
-41.1178
-42.924
-43.7076
-44.0273
-44.1522
-44.1994
-44.2172
-44.2241
-44.2273
-44.2293
-44.231
-44.2326
-44.2344
-44.2362
-44.2383
-44.2406
-44.243
-44.2458
-44.2489
-44.2523
-44.256
-44.2601
-44.2642
-44.2678
-44.2691
-44.2647
-44.248
-44.2082
-44.1297
-43.9921
-43.7727
-43.4493
-43.0042
-42.4275
-41.7185
-40.8864
-39.9487
-38.9299
</DataArray>
</CellData>
</Piece>
</RectilinearGrid>
</VTKFile>
