<?xml version="1.0"?>
<VTKFile type="RectilinearGrid">
<RectilinearGrid WholeExtent="0 100 0 0 0 0">
<Piece Extent="0 100 0 0 0 0">
<Coordinates>
<DataArray type="Float32" format="ascii">
0
10
20
30
40
50
60
70
80
90
100
110
120
130
140
150
160
170
180
190
200
210
220
230
240
250
260
270
280
290
300
310
320
330
340
350
360
370
380
390
400
410
420
430
440
450
460
470
480
490
500
510
520
530
540
550
560
570
580
590
600
610
620
630
640
650
660
670
680
690
700
710
720
730
740
750
760
770
780
790
800
810
820
830
840
850
860
870
880
890
900
910
920
930
940
950
960
970
980
990
1000
</DataArray>
<DataArray type="Float32" format="ascii">
0
</DataArray>
<DataArray type="Float32" format="ascii">
0
</DataArray>
</Coordinates>
<CellData>
<DataArray Name="h" type="Float32" format="ascii">
15
15
15
15
15
15
15
15
15
15
14.9998
14.9992
14.9966
14.9885
14.9665
14.9166
14.8208
14.6639
14.4439
14.1791
13.9086
13.6811
13.533
13.4669
13.4527
13.4562
13.4605
13.4607
13.4474
13.3888
13.2083
12.7827
12.0409
11.1666
10.5085
10.1765
10.0514
10.0129
10.0028
10.0005
10.0001
10
10
10
10
10
10
10
10
10
10
10
10
10
10
10
10
10
10.0001
10.0005
10.0026
10.0122
10.0483
10.1649
10.4735
11.0938
11.9538
12.7316
13.1998
13.4018
13.4676
13.4829
13.4837
13.4805
13.4785
13.4943
13.5607
13.7061
13.9287
14.1939
14.4543
14.6709
14.8252
14.9191
14.9677
14.989
14.9968
14.9992
14.9998
15
15
15
15
15
15
15
15
15
15
15
</DataArray>
<DataArray Name="hu" type="Float32" format="ascii">
30
30
30
30
30
30
30
30
30
30.0003
30.0018
30.0086
30.0345
30.1176
30.3415
30.848
31.8133
33.3701
35.5071
38.0112
40.4997
42.5437
43.8534
44.4341
44.556
44.5188
44.4645
44.3824
44.1104
43.1469
40.3421
34.0239
23.7703
12.7954
5.29441
1.7821
0.512002
0.127593
0.027521
0.00509302
0.000798815
0.00010425
1.14445e-05
4.87872e-07
2.70663e-09
1.94678e-11
2.19697e-13
6.27348e-16
1.06565e-18
0
-1.0539e-18
-6.24941e-16
-2.15919e-13
-1.91538e-11
-2.68958e-09
-1.52172e-07
-8.23135e-06
-9.97196e-05
-0.000764691
-0.00485572
-0.0261437
-0.120614
-0.481025
-1.66261
-4.91354
-11.9171
-22.5356
-33.0245
-39.8172
-42.9054
-43.9631
-44.2505
-44.326
-44.3674
-44.3878
-44.2485
-43.6606
-42.3634
-40.3475
-37.8909
-35.4154
-33.3036
-31.7694
-30.8228
-30.3293
-30.1127
-30.0328
-30.0081
-30.0017
-30.0003
-30
-30
-30
-30
-30
-30
-30
-30
-30
-30
</DataArray>
</CellData>
</Piece>
</RectilinearGrid>
</VTKFile>
