<?xml version="1.0"?>
<VTKFile type="RectilinearGrid">
<RectilinearGrid WholeExtent="0 100 0 0 0 0">
<Piece Extent="0 100 0 0 0 0">
<Coordinates>
<DataArray type="Float32" format="ascii">
0
10
20
30
40
50
60
70
80
90
100
110
120
130
140
150
160
170
180
190
200
210
220
230
240
250
260
270
280
290
300
310
320
330
340
350
360
370
380
390
400
410
420
430
440
450
460
470
480
490
500
510
520
530
540
550
560
570
580
590
600
610
620
630
640
650
660
670
680
690
700
710
720
730
740
750
760
770
780
790
800
810
820
830
840
850
860
870
880
890
900
910
920
930
940
950
960
970
980
990
1000
</DataArray>
<DataArray type="Float32" format="ascii">
0
</DataArray>
<DataArray type="Float32" format="ascii">
0
</DataArray>
</Coordinates>
<CellData>
<DataArray Name="h" type="Float32" format="ascii">
15
15
15
15
15
15
15
15
15
15
15
15
15
14.9999
14.9994
14.9968
14.9867
14.9554
14.8774
14.7216
14.4706
14.1451
13.814
13.5689
13.458
13.4405
13.4321
13.3476
13.0558
12.4024
11.4601
10.6434
10.2107
10.0543
10.0114
10.0019
10.0003
10
10
10
10
10
10
10
10
10
10
10
10
10
10
10
10
10
10
10
10
10
10
10
10
10
10.0003
10.0019
10.0108
10.0515
10.1987
10.6062
11.39
12.3406
13.0398
13.3617
13.4564
13.4684
13.4884
13.5995
13.8401
14.1642
14.4835
14.7295
14.8816
14.9572
14.9874
14.997
14.9994
14.9999
15
15
15
15
15
15
15
15
15
15
15
15
15
15
</DataArray>
<DataArray Name="hu" type="Float32" format="ascii">
30
30
30
30
30
30
30
30
30
30
30
30
30.0001
30.001
30.0063
30.0326
30.1353
30.4544
31.2425
32.7942
35.236
38.3039
41.323
43.504
44.4787
44.5844
44.2205
42.7557
38.2208
28.7698
16.4162
6.79784
2.13771
0.541511
0.112882
0.0192833
0.00266233
0.000292906
2.45062e-05
6.32074e-07
8.96094e-09
2.62942e-11
4.65318e-14
0
0
0
0
0
0
0
0
0
0
0
0
0
-4.60189e-14
-2.62012e-11
-8.7983e-09
-6.22225e-07
-2.4033e-05
-0.000279669
-0.00255015
-0.0184358
-0.107499
-0.513026
-2.01336
-6.38102
-15.5225
-27.7465
-37.5843
-42.4697
-44.0497
-44.4158
-44.2837
-43.2959
-41.132
-38.1485
-35.1206
-32.7181
-31.2002
-30.4355
-30.1287
-30.0307
-30.0059
-30.0009
-30.0001
-30
-30
-30
-30
-30
-30
-30
-30
-30
-30
-30
-30
-30
</DataArray>
</CellData>
</Piece>
</RectilinearGrid>
</VTKFile>
