<?xml version="1.0"?>
<VTKFile type="RectilinearGrid">
<RectilinearGrid WholeExtent="0 100 0 0 0 0">
<Piece Extent="0 100 0 0 0 0">
<Coordinates>
<DataArray type="Float32" format="ascii">
0
10
20
30
40
50
60
70
80
90
100
110
120
130
140
150
160
170
180
190
200
210
220
230
240
250
260
270
280
290
300
310
320
330
340
350
360
370
380
390
400
410
420
430
440
450
460
470
480
490
500
510
520
530
540
550
560
570
580
590
600
610
620
630
640
650
660
670
680
690
700
710
720
730
740
750
760
770
780
790
800
810
820
830
840
850
860
870
880
890
900
910
920
930
940
950
960
970
980
990
1000
</DataArray>
<DataArray type="Float32" format="ascii">
0
</DataArray>
<DataArray type="Float32" format="ascii">
0
</DataArray>
</Coordinates>
<CellData>
<DataArray Name="h" type="Float32" format="ascii">
13.5041
13.4846
13.4721
13.465
13.4616
13.4605
13.4609
13.462
13.4634
13.465
13.4665
13.4681
13.4696
13.471
13.4724
13.4738
13.475
13.4762
13.4774
13.4785
13.4797
13.4812
13.4838
13.4893
13.5019
13.5321
13.6029
13.7611
14.084
14.6462
15.4175
16.2078
16.8143
17.1833
17.3753
17.466
17.5065
17.5237
17.5308
17.5337
17.5348
17.5353
17.5355
17.5355
17.5356
17.5356
17.5357
17.5357
17.5356
17.5356
17.5355
17.5355
17.5354
17.5352
17.5351
17.535
17.5348
17.5345
17.534
17.5329
17.5303
17.5242
17.5093
17.4743
17.3945
17.2223
16.8815
16.3007
15.5156
14.7277
14.1431
13.802
13.632
13.5547
13.5213
13.5073
13.5014
13.4988
13.4974
13.4964
13.4955
13.4945
13.4935
13.4925
13.4913
13.4901
13.4888
13.4874
13.486
13.4845
13.4831
13.4818
13.4809
13.4807
13.4819
13.4854
13.4924
13.5045
13.5235
13.5508
</DataArray>
<DataArray Name="hu" type="Float32" format="ascii">
43.7236
43.902
44.0198
44.0925
44.1345
44.1573
44.1695
44.1768
44.1827
44.1888
44.1959
44.2042
44.2135
44.2238
44.2345
44.2455
44.2565
44.2672
44.2772
44.2861
44.2928
44.2949
44.2862
44.2514
44.1531
43.9026
43.297
41.9054
38.9478
33.4706
25.3565
16.3919
9.08238
4.45031
1.98334
0.80255
0.27294
0.0454152
-0.0494573
-0.0884875
-0.104896
-0.112501
-0.116793
-0.119858
-0.122494
-0.124969
-0.127381
-0.129765
-0.132149
-0.134558
-0.137001
-0.139506
-0.142088
-0.144759
-0.147557
-0.150608
-0.154134
-0.158773
-0.166319
-0.181367
-0.215537
-0.297133
-0.492469
-0.950697
-1.98779
-4.20321
-8.49107
-15.5094
-24.4277
-32.724
-38.4347
-41.5716
-43.0746
-43.7416
-44.0235
-44.1372
-44.1798
-44.193
-44.194
-44.1895
-44.1825
-44.1739
-44.1642
-44.1537
-44.1426
-44.1312
-44.1197
-44.1085
-44.0976
-44.0872
-44.0772
-44.0669
-44.0546
-44.0371
-44.009
-43.9624
-43.8861
-43.7667
-43.5892
-43.3389
</DataArray>
</CellData>
</Piece>
</RectilinearGrid>
</VTKFile>
