<?xml version="1.0"?>
<VTKFile type="RectilinearGrid">
<RectilinearGrid WholeExtent="0 100 0 0 0 0">
<Piece Extent="0 100 0 0 0 0">
<Coordinates>
<DataArray type="Float32" format="ascii">
0
10
20
30
40
50
60
70
80
90
100
110
120
130
140
150
160
170
180
190
200
210
220
230
240
250
260
270
280
290
300
310
320
330
340
350
360
370
380
390
400
410
420
430
440
450
460
470
480
490
500
510
520
530
540
550
560
570
580
590
600
610
620
630
640
650
660
670
680
690
700
710
720
730
740
750
760
770
780
790
800
810
820
830
840
850
860
870
880
890
900
910
920
930
940
950
960
970
980
990
1000
</DataArray>
<DataArray type="Float32" format="ascii">
0
</DataArray>
<DataArray type="Float32" format="ascii">
0
</DataArray>
</Coordinates>
<CellData>
<DataArray Name="h" type="Float32" format="ascii">
13.5132
13.4907
13.476
13.4673
13.4628
13.4612
13.4612
13.4622
13.4637
13.4653
13.4669
13.4685
13.47
13.4715
13.4729
13.4743
13.4755
13.4767
13.4778
13.4788
13.4799
13.4811
13.483
13.4865
13.4947
13.5142
13.5607
13.6679
13.8986
14.3376
15.0213
15.8329
16.5476
17.0302
17.2987
17.4308
17.4911
17.5172
17.5282
17.5326
17.5343
17.535
17.5353
17.5354
17.5355
17.5355
17.5355
17.5355
17.5355
17.5355
17.5354
17.5353
17.5352
17.5351
17.535
17.5348
17.5346
17.5342
17.5335
17.5319
17.528
17.5186
17.4961
17.4437
17.3268
17.0831
16.6304
15.9337
15.115
14.4092
13.9486
13.7024
13.586
13.5348
13.5131
13.5041
13.5003
13.4985
13.4975
13.4966
13.4958
13.4949
13.494
13.4929
13.4918
13.4906
13.4893
13.4879
13.4865
13.485
13.4836
13.4823
13.4815
13.4816
13.4834
13.4878
13.4964
13.5107
13.5325
13.5633
</DataArray>
<DataArray Name="hu" type="Float32" format="ascii">
43.6484
43.854
43.9926
44.0804
44.1324
44.1615
44.1773
44.1866
44.1935
44.2001
44.2075
44.2158
44.2252
44.2353
44.2458
44.2564
44.267
44.2771
44.2866
44.295
44.3018
44.3054
44.3019
44.2817
44.2208
44.0611
43.6665
42.7358
40.6682
36.5289
29.6076
20.7238
12.3422
6.38837
2.97093
1.26096
0.473512
0.129483
-0.0154028
-0.0750377
-0.0996307
-0.110359
-0.115821
-0.119347
-0.122181
-0.124773
-0.127302
-0.129824
-0.132361
-0.134921
-0.137531
-0.140208
-0.142927
-0.145722
-0.148671
-0.151928
-0.15588
-0.161567
-0.171777
-0.193709
-0.245262
-0.369334
-0.664879
-1.34913
-2.86275
-5.96883
-11.5699
-19.7593
-28.7292
-35.8861
-40.2446
-42.4603
-43.4766
-43.9158
-44.0976
-44.1693
-44.1951
-44.2021
-44.2012
-44.1966
-44.19
-44.1821
-44.1731
-44.1633
-44.1529
-44.142
-44.131
-44.12
-44.1092
-44.0988
-44.0884
-44.0772
-44.063
-44.0419
-44.0078
-43.9514
-43.8606
-43.721
-43.5171
-43.2345
</DataArray>
</CellData>
</Piece>
</RectilinearGrid>
</VTKFile>
