<?xml version="1.0"?>
<VTKFile type="RectilinearGrid">
<RectilinearGrid WholeExtent="0 100 0 0 0 0">
<Piece Extent="0 100 0 0 0 0">
<Coordinates>
<DataArray type="Float32" format="ascii">
0
10
20
30
40
50
60
70
80
90
100
110
120
130
140
150
160
170
180
190
200
210
220
230
240
250
260
270
280
290
300
310
320
330
340
350
360
370
380
390
400
410
420
430
440
450
460
470
480
490
500
510
520
530
540
550
560
570
580
590
600
610
620
630
640
650
660
670
680
690
700
710
720
730
740
750
760
770
780
790
800
810
820
830
840
850
860
870
880
890
900
910
920
930
940
950
960
970
980
990
1000
</DataArray>
<DataArray type="Float32" format="ascii">
0
</DataArray>
<DataArray type="Float32" format="ascii">
0
</DataArray>
</Coordinates>
<CellData>
<DataArray Name="h" type="Float32" format="ascii">
14.2256
14.1047
13.9865
13.8751
13.7745
13.6878
13.6171
13.5629
13.5243
13.4991
13.4844
13.477
13.4741
13.4736
13.4743
13.4753
13.4764
13.4774
13.4782
13.4789
13.4795
13.4801
13.4805
13.4809
13.4813
13.4816
13.4819
13.4821
13.4823
13.4825
13.4827
13.483
13.4833
13.484
13.4858
13.4907
13.5041
13.5389
13.6255
13.8251
14.2303
14.901
15.7396
16.5037
17.0243
17.3082
17.4411
17.497
17.518
17.5237
17.5197
17.5026
17.4566
17.3455
17.1005
16.6293
15.8954
15.042
14.3288
13.8849
13.6614
13.5631
13.5233
13.5081
13.5025
13.5004
13.4997
13.4994
13.4992
13.499
13.4989
13.4987
13.4985
13.4983
13.4981
13.4978
13.4975
13.4972
13.4968
13.4964
13.4959
13.4953
13.4946
13.4939
13.4932
13.493
13.494
13.4973
13.5051
13.52
13.5448
13.5826
13.6355
13.7045
13.7891
13.8875
13.9968
14.1132
14.2327
14.3511
</DataArray>
<DataArray Name="hu" type="Float32" format="ascii">
37.4508
38.6077
39.7228
40.7594
41.6855
42.4765
43.118
43.6078
43.9564
44.1848
44.3198
44.3896
44.4185
44.4249
44.4206
44.4124
44.4035
44.3952
44.3878
44.3813
44.3757
44.3707
44.3663
44.3623
44.3587
44.3555
44.3525
44.3497
44.3471
44.3447
44.3423
44.3396
44.3361
44.3293
44.313
44.2702
44.1558
43.8567
43.1047
41.3279
37.5482
30.8354
21.7357
12.8156
6.39793
2.77662
1.04722
0.305268
0.00185821
-0.139991
-0.269063
-0.521486
-1.13238
-2.57905
-5.71187
-11.5493
-20.1667
-29.4766
-36.6569
-40.8237
-42.8218
-43.6778
-44.02
-44.1503
-44.1984
-44.2159
-44.2225
-44.2256
-44.2275
-44.229
-44.2306
-44.2323
-44.2341
-44.2361
-44.2382
-44.2406
-44.2433
-44.2462
-44.2497
-44.2536
-44.2581
-44.2634
-44.2693
-44.2755
-44.2807
-44.2819
-44.2725
-44.2412
-44.1705
-44.0372
-43.8143
-43.4756
-43.0003
-42.3771
-41.6068
-40.7018
-39.6852
-38.5877
-37.4451
-36.2956
</DataArray>
</CellData>
</Piece>
</RectilinearGrid>
</VTKFile>
