<?xml version="1.0"?>
<VTKFile type="RectilinearGrid">
<RectilinearGrid WholeExtent="0 100 0 0 0 0">
<Piece Extent="0 100 0 0 0 0">
<Coordinates>
<DataArray type="Float32" format="ascii">
0
10
20
30
40
50
60
70
80
90
100
110
120
130
140
150
160
170
180
190
200
210
220
230
240
250
260
270
280
290
300
310
320
330
340
350
360
370
380
390
400
410
420
430
440
450
460
470
480
490
500
510
520
530
540
550
560
570
580
590
600
610
620
630
640
650
660
670
680
690
700
710
720
730
740
750
760
770
780
790
800
810
820
830
840
850
860
870
880
890
900
910
920
930
940
950
960
970
980
990
1000
</DataArray>
<DataArray type="Float32" format="ascii">
0
</DataArray>
<DataArray type="Float32" format="ascii">
0
</DataArray>
</Coordinates>
<CellData>
<DataArray Name="h" type="Float32" format="ascii">
13.4894
13.475
13.4664
13.4618
13.4599
13.4597
13.4604
13.4616
13.463
13.4644
13.4659
13.4673
13.4687
13.4701
13.4714
13.4727
13.474
13.4753
13.4765
13.4778
13.4796
13.4823
13.488
13.5008
13.531
13.6013
13.758
14.0777
14.6353
15.4033
16.1941
16.8042
17.177
17.3717
17.4642
17.5056
17.5234
17.5308
17.5337
17.5349
17.5354
17.5356
17.5357
17.5358
17.5358
17.5358
17.5359
17.5358
17.5358
17.5358
17.5357
17.5357
17.5356
17.5355
17.5354
17.5352
17.5351
17.5349
17.5346
17.534
17.5329
17.5302
17.5238
17.5085
17.4724
17.3909
17.2154
16.8698
16.284
15.4974
14.7133
14.1347
13.7981
13.6303
13.5538
13.5206
13.5064
13.5004
13.4975
13.4959
13.4947
13.4936
13.4926
13.4914
13.4902
13.489
13.4877
13.4864
13.485
13.4837
13.4823
13.481
13.48
13.4794
13.4797
13.4817
13.4863
13.4948
13.5088
13.5299
</DataArray>
<DataArray Name="hu" type="Float32" format="ascii">
43.8449
43.9765
44.0594
44.1078
44.134
44.1472
44.1539
44.1582
44.1623
44.1674
44.1739
44.1818
44.191
44.2012
44.2121
44.2235
44.2351
44.2464
44.2571
44.2658
44.2701
44.2638
44.2316
44.1363
43.89
43.2923
41.9181
38.9952
33.5715
25.5056
16.548
9.20521
4.53016
2.03007
0.828502
0.287031
0.0530914
-0.0450636
-0.0856898
-0.102816
-0.110682
-0.115033
-0.118077
-0.12064
-0.123015
-0.125294
-0.127495
-0.129636
-0.131744
-0.133849
-0.136003
-0.138214
-0.140512
-0.142949
-0.145536
-0.148272
-0.151259
-0.154778
-0.159512
-0.167303
-0.18299
-0.218649
-0.303385
-0.505114
-0.97584
-2.03619
-4.2914
-8.63572
-15.705
-24.6251
-32.8651
-38.5075
-41.5986
-43.0787
-43.7356
-44.0127
-44.1234
-44.1635
-44.1741
-44.1724
-44.1654
-44.1558
-44.145
-44.1334
-44.1214
-44.1093
-44.0973
-44.0858
-44.0749
-44.0649
-44.0556
-44.0469
-44.0376
-44.0256
-44.007
-43.9758
-43.9232
-43.8376
-43.7055
-43.5123
</DataArray>
</CellData>
</Piece>
</RectilinearGrid>
</VTKFile>
