<?xml version="1.0"?>
<VTKFile type="RectilinearGrid">
<RectilinearGrid WholeExtent="0 100 0 0 0 0">
<Piece Extent="0 100 0 0 0 0">
<Coordinates>
<DataArray type="Float32" format="ascii">
0
10
20
30
40
50
60
70
80
90
100
110
120
130
140
150
160
170
180
190
200
210
220
230
240
250
260
270
280
290
300
310
320
330
340
350
360
370
380
390
400
410
420
430
440
450
460
470
480
490
500
510
520
530
540
550
560
570
580
590
600
610
620
630
640
650
660
670
680
690
700
710
720
730
740
750
760
770
780
790
800
810
820
830
840
850
860
870
880
890
900
910
920
930
940
950
960
970
980
990
1000
</DataArray>
<DataArray type="Float32" format="ascii">
0
</DataArray>
<DataArray type="Float32" format="ascii">
0
</DataArray>
</Coordinates>
<CellData>
<DataArray Name="h" type="Float32" format="ascii">
15
15
15
15
15
15
15
14.9999
14.9995
14.998
14.9934
14.9814
14.9541
14.8999
14.8063
14.6643
14.4739
14.2476
14.0097
13.7919
13.6234
13.5187
13.471
13.4585
13.4598
13.4635
13.4664
13.4684
13.4693
13.467
13.4532
13.404
13.2632
12.931
12.3117
11.4794
10.7369
10.2938
10.0991
10.0293
10.0077
10.0018
10.0004
10.0001
10
10
10
10
10
10
10
10
10
10
10
10.0001
10.0003
10.0017
10.0073
10.0274
10.092
10.2713
10.6803
11.3837
12.2192
12.8843
13.2563
13.4158
13.4714
13.487
13.49
13.4895
13.488
13.4858
13.483
13.483
13.4968
13.5447
13.6477
13.8124
14.0255
14.2592
14.4822
14.6701
14.8102
14.9024
14.9554
14.9821
14.9937
14.9981
14.9995
14.9999
15
15
15
15
15
15
15
15
</DataArray>
<DataArray Name="hu" type="Float32" format="ascii">
30
30
30
30
30
30
30.0003
30.0013
30.0056
30.0208
30.0673
30.1897
30.4684
31.0183
31.9604
33.3706
35.2259
37.3815
39.5914
41.5685
43.0712
43.9948
44.4137
44.5224
44.5081
44.4719
44.4412
44.4153
44.3842
44.3105
44.0642
43.2733
41.0887
36.1099
27.3509
16.5536
7.8065
2.99664
0.991721
0.291331
0.0763899
0.0177991
0.00365441
0.000652733
0.000101567
1.27427e-05
6.0552e-07
5.90913e-09
1.07463e-10
4.60142e-15
-4.03081e-11
-4.09401e-09
-1.96443e-07
-8.7453e-06
-9.2755e-05
-0.000624767
-0.00347348
-0.0168433
-0.0719268
-0.272548
-0.920691
-2.76066
-7.16949
-15.3513
-25.9665
-35.1356
-40.6009
-43.0436
-43.9239
-44.1906
-44.2636
-44.2889
-44.3073
-44.3292
-44.3546
-44.3557
-44.2343
-43.8102
-42.896
-41.4167
-39.4688
-37.286
-35.1525
-33.3156
-31.9216
-30.9936
-30.4547
-30.1831
-30.0646
-30.0199
-30.0053
-30.0012
-30.0002
-30
-30
-30
-30
-30
-30
-30
</DataArray>
</CellData>
</Piece>
</RectilinearGrid>
</VTKFile>
