<?xml version="1.0"?>
<VTKFile type="RectilinearGrid">
<RectilinearGrid WholeExtent="0 100 0 0 0 0">
<Piece Extent="0 100 0 0 0 0">
<Coordinates>
<DataArray type="Float32" format="ascii">
0
10
20
30
40
50
60
70
80
90
100
110
120
130
140
150
160
170
180
190
200
210
220
230
240
250
260
270
280
290
300
310
320
330
340
350
360
370
380
390
400
410
420
430
440
450
460
470
480
490
500
510
520
530
540
550
560
570
580
590
600
610
620
630
640
650
660
670
680
690
700
710
720
730
740
750
760
770
780
790
800
810
820
830
840
850
860
870
880
890
900
910
920
930
940
950
960
970
980
990
1000
</DataArray>
<DataArray type="Float32" format="ascii">
0
</DataArray>
<DataArray type="Float32" format="ascii">
0
</DataArray>
</Coordinates>
<CellData>
<DataArray Name="h" type="Float32" format="ascii">
14.3261
14.2035
14.0802
13.9607
13.8493
13.75
13.6659
13.5987
13.5486
13.5141
13.4926
13.4807
13.4752
13.4735
13.4736
13.4746
13.4757
13.4767
13.4776
13.4784
13.4791
13.4797
13.4802
13.4806
13.481
13.4813
13.4816
13.4819
13.4821
13.4823
13.4825
13.4827
13.4829
13.4833
13.484
13.4858
13.4908
13.5044
13.5404
13.6303
13.8381
14.2585
14.9477
15.7952
16.5515
17.056
17.3255
17.4486
17.4978
17.5115
17.5024
17.4629
17.3609
17.1306
16.6781
15.9564
15.0963
14.3627
13.9006
13.6672
13.5649
13.5237
13.5081
13.5024
13.5004
13.4997
13.4994
13.4992
13.499
13.4989
13.4987
13.4985
13.4983
13.4981
13.4979
13.4976
13.4973
13.4969
13.4965
13.496
13.4955
13.4948
13.4941
13.4933
13.4929
13.4932
13.4954
13.5013
13.5134
13.5347
13.5685
13.6174
13.6829
13.7649
13.862
13.9712
14.0889
14.2106
14.3321
14.4491
</DataArray>
<DataArray Name="hu" type="Float32" format="ascii">
36.5266
37.7102
38.8821
40.0019
41.0316
41.9387
42.7
43.3039
43.7523
44.0605
44.2533
44.3606
44.4109
44.4276
44.4272
44.4197
44.4102
44.4009
44.3926
44.3854
44.3791
44.3736
44.3687
44.3644
44.3605
44.357
44.3538
44.3509
44.3481
44.3456
44.3431
44.3407
44.3381
44.3345
44.3277
44.3112
44.2676
44.1502
43.8412
43.06
41.2079
37.2727
30.342
21.0979
12.2263
5.98373
2.53369
0.913214
0.212044
-0.126671
-0.434212
-1.01728
-2.36413
-5.32089
-10.9488
-19.4665
-28.903
-36.3268
-40.6797
-42.7699
-43.6615
-44.0153
-44.1489
-44.1976
-44.2152
-44.2219
-44.2249
-44.2268
-44.2283
-44.2299
-44.2316
-44.2333
-44.2353
-44.2374
-44.2397
-44.2422
-44.2451
-44.2484
-44.2522
-44.2566
-44.2617
-44.2675
-44.2739
-44.2803
-44.2843
-44.2809
-44.2608
-44.2082
-44.1007
-43.9111
-43.6106
-43.1748
-42.588
-41.8469
-40.9612
-39.9526
-38.8518
-37.6957
-36.5247
-35.3793
</DataArray>
</CellData>
</Piece>
</RectilinearGrid>
</VTKFile>
