<?xml version="1.0"?>
<VTKFile type="RectilinearGrid">
<RectilinearGrid WholeExtent="0 100 0 0 0 0">
<Piece Extent="0 100 0 0 0 0">
<Coordinates>
<DataArray type="Float32" format="ascii">
0
10
20
30
40
50
60
70
80
90
100
110
120
130
140
150
160
170
180
190
200
210
220
230
240
250
260
270
280
290
300
310
320
330
340
350
360
370
380
390
400
410
420
430
440
450
460
470
480
490
500
510
520
530
540
550
560
570
580
590
600
610
620
630
640
650
660
670
680
690
700
710
720
730
740
750
760
770
780
790
800
810
820
830
840
850
860
870
880
890
900
910
920
930
940
950
960
970
980
990
1000
</DataArray>
<DataArray type="Float32" format="ascii">
0
</DataArray>
<DataArray type="Float32" format="ascii">
0
</DataArray>
</Coordinates>
<CellData>
<DataArray Name="h" type="Float32" format="ascii">
13.6424
13.5863
13.543
13.5116
13.4904
13.4774
13.4705
13.4676
13.4672
13.4681
13.4696
13.4713
13.473
13.4746
13.4759
13.4772
13.4782
13.4792
13.48
13.4807
13.4812
13.4817
13.4822
13.4826
13.483
13.4836
13.4849
13.488
13.4959
13.5156
13.5641
13.6772
13.9219
14.3847
15.0933
15.9126
16.6132
17.0736
17.3237
17.4439
17.4975
17.52
17.529
17.5325
17.5338
17.5343
17.5344
17.5344
17.5344
17.5344
17.5343
17.5342
17.534
17.5338
17.5332
17.532
17.5289
17.5212
17.5021
17.4565
17.3521
17.1295
16.7046
16.0291
15.2051
14.4701
13.9794
13.7148
13.5902
13.5361
13.5137
13.5048
13.5013
13.4999
13.4993
13.499
13.4987
13.4985
13.4982
13.4978
13.4974
13.4968
13.4962
13.4955
13.4946
13.4936
13.4924
13.4912
13.4899
13.4888
13.4883
13.4891
13.4922
13.4993
13.5121
13.5327
13.5632
13.6051
13.6593
13.7259
</DataArray>
<DataArray Name="hu" type="Float32" format="ascii">
42.5702
43.0832
43.4835
43.7798
43.9869
44.123
44.2068
44.2555
44.2824
44.2975
44.3066
44.3131
44.3187
44.3239
44.3288
44.3334
44.3373
44.3407
44.3433
44.3452
44.3464
44.3469
44.3468
44.346
44.3441
44.3398
44.3295
44.3034
44.2365
44.0673
43.6505
42.6618
40.4592
36.07
28.8447
19.8071
11.536
5.82904
2.63561
1.07525
0.374779
0.0776567
-0.0434589
-0.0918803
-0.111749
-0.120986
-0.12646
-0.1307
-0.134565
-0.138376
-0.142279
-0.146353
-0.150856
-0.156513
-0.165418
-0.183287
-0.224947
-0.327316
-0.578127
-1.17488
-2.52848
-5.37616
-10.6607
-18.6637
-27.7743
-35.2908
-39.9635
-42.3541
-43.4462
-43.9136
-44.1052
-44.1813
-44.2108
-44.2224
-44.227
-44.2292
-44.2304
-44.231
-44.2313
-44.2311
-44.2304
-44.2291
-44.2271
-44.2245
-44.2212
-44.2172
-44.2124
-44.2067
-44.1994
-44.1889
-44.1719
-44.1424
-44.0914
-44.0059
-43.8698
-43.6648
-43.3735
-42.9813
-42.479
-41.8643
</DataArray>
</CellData>
</Piece>
</RectilinearGrid>
</VTKFile>
