<?xml version="1.0"?>
<VTKFile type="RectilinearGrid">
<RectilinearGrid WholeExtent="0 100 0 0 0 0">
<Piece Extent="0 100 0 0 0 0">
<Coordinates>
<DataArray type="Float32" format="ascii">
0
10
20
30
40
50
60
70
80
90
100
110
120
130
140
150
160
170
180
190
200
210
220
230
240
250
260
270
280
290
300
310
320
330
340
350
360
370
380
390
400
410
420
430
440
450
460
470
480
490
500
510
520
530
540
550
560
570
580
590
600
610
620
630
640
650
660
670
680
690
700
710
720
730
740
750
760
770
780
790
800
810
820
830
840
850
860
870
880
890
900
910
920
930
940
950
960
970
980
990
1000
</DataArray>
<DataArray type="Float32" format="ascii">
0
</DataArray>
<DataArray type="Float32" format="ascii">
0
</DataArray>
</Coordinates>
<CellData>
<DataArray Name="h" type="Float32" format="ascii">
14.7403
14.6459
14.5355
14.4118
14.2791
14.1425
14.0079
13.8811
13.7678
13.6724
13.5974
13.5431
13.5074
13.4867
13.4764
13.4725
13.472
13.4728
13.4741
13.4753
13.4764
13.4774
13.4781
13.4788
13.4794
13.4799
13.4803
13.4807
13.481
13.4813
13.4815
13.4818
13.482
13.4821
13.4823
13.4824
13.4826
13.4828
13.4832
13.4843
13.4876
13.4972
13.524
13.5947
13.7682
14.1432
14.7997
15.6416
16.361
16.6753
16.4801
15.8265
14.9666
14.2501
13.8263
13.6274
13.5462
13.5157
13.5049
13.5011
13.4999
13.4994
13.4992
13.4991
13.499
13.4989
13.4987
13.4986
13.4984
13.4982
13.498
13.4978
13.4975
13.4972
13.4968
13.4964
13.4959
13.4953
13.4947
13.4939
13.493
13.4922
13.4918
13.4929
13.4972
13.5078
13.5284
13.5634
13.6163
13.6893
13.7823
13.8929
14.0172
14.1497
14.2846
14.4161
14.539
14.649
14.7431
14.8198
</DataArray>
<DataArray Name="hu" type="Float32" format="ascii">
32.5846
33.5315
34.6235
35.8276
37.0994
38.3876
39.638
40.7979
41.8214
42.6741
43.3385
43.8167
44.1296
44.3115
44.4015
44.4353
44.4399
44.432
44.4205
44.4092
44.3991
44.3904
44.3829
44.3764
44.3707
44.3657
44.3612
44.3571
44.3534
44.35
44.3467
44.3437
44.3408
44.3381
44.3354
44.3328
44.3301
44.3268
44.3215
44.3098
44.2791
44.1937
43.9586
43.3329
41.7603
38.1818
31.3488
21.3675
10.5989
0.933922
-8.52938
-19.1771
-29.6411
-37.201
-41.2804
-43.0906
-43.8088
-44.0756
-44.1705
-44.2035
-44.215
-44.2195
-44.2218
-44.2235
-44.2251
-44.2267
-44.2284
-44.2301
-44.232
-44.2341
-44.2363
-44.2387
-44.2413
-44.2443
-44.2477
-44.2516
-44.256
-44.2613
-44.2673
-44.2744
-44.2822
-44.2896
-44.2928
-44.2833
-44.245
-44.152
-43.9705
-43.6625
-43.1947
-42.5458
-41.7122
-40.7093
-39.5691
-38.3361
-37.0621
-35.8013
-34.6058
-33.5206
-32.5798
-31.8031
</DataArray>
</CellData>
</Piece>
</RectilinearGrid>
</VTKFile>
