<?xml version="1.0"?>
<VTKFile type="RectilinearGrid">
<RectilinearGrid WholeExtent="0 100 0 0 0 0">
<Piece Extent="0 100 0 0 0 0">
<Coordinates>
<DataArray type="Float32" format="ascii">
0
10
20
30
40
50
60
70
80
90
100
110
120
130
140
150
160
170
180
190
200
210
220
230
240
250
260
270
280
290
300
310
320
330
340
350
360
370
380
390
400
410
420
430
440
450
460
470
480
490
500
510
520
530
540
550
560
570
580
590
600
610
620
630
640
650
660
670
680
690
700
710
720
730
740
750
760
770
780
790
800
810
820
830
840
850
860
870
880
890
900
910
920
930
940
950
960
970
980
990
1000
</DataArray>
<DataArray type="Float32" format="ascii">
0
</DataArray>
<DataArray type="Float32" format="ascii">
0
</DataArray>
</Coordinates>
<CellData>
<DataArray Name="h" type="Float32" format="ascii">
14.8088
14.7275
14.6282
14.5124
14.3836
14.2464
14.1066
13.9704
13.8442
13.7337
13.6431
13.5742
13.5264
13.4967
13.4806
13.4736
13.4716
13.472
13.4732
13.4745
13.4757
13.4767
13.4776
13.4783
13.479
13.4795
13.48
13.4804
13.4807
13.481
13.4813
13.4815
13.4817
13.4819
13.4821
13.4822
13.4823
13.4825
13.4826
13.483
13.4841
13.4875
13.4972
13.5246
13.5973
13.7748
14.1519
14.779
15.4809
15.85
15.6113
14.9344
14.2589
13.8336
13.6302
13.547
13.5158
13.5048
13.5011
13.4998
13.4994
13.4992
13.4991
13.499
13.4989
13.4987
13.4986
13.4984
13.4982
13.498
13.4978
13.4976
13.4973
13.4969
13.4965
13.4961
13.4955
13.4949
13.4941
13.4933
13.4924
13.4916
13.4918
13.4943
13.5018
13.5179
13.5472
13.5939
13.6609
13.7492
13.857
13.9806
14.1144
14.2523
14.3881
14.5159
14.6311
14.7301
14.8111
14.8739
</DataArray>
<DataArray Name="hu" type="Float32" format="ascii">
31.9117
32.7325
33.723
34.8606
36.1076
37.4149
38.7265
39.9842
41.133
42.1267
42.9338
43.5425
43.9627
44.2231
44.3635
44.4252
44.4425
44.439
44.4281
44.4159
44.4048
44.3952
44.3869
44.3797
44.3735
44.368
44.3631
44.3587
44.3547
44.3511
44.3476
44.3444
44.3413
44.3384
44.3356
44.3328
44.33
44.3271
44.3235
44.3177
44.3047
44.2699
44.1721
43.9002
43.1709
41.3253
37.0931
28.907
16.4934
1.69545
-13.4072
-26.7059
-35.8954
-40.7703
-42.9076
-43.7464
-44.0547
-44.1632
-44.2003
-44.2131
-44.218
-44.2205
-44.2223
-44.2239
-44.2256
-44.2273
-44.229
-44.2309
-44.2329
-44.2351
-44.2375
-44.2401
-44.2429
-44.2462
-44.2499
-44.2542
-44.2591
-44.2649
-44.2717
-44.2794
-44.2876
-44.294
-44.2925
-44.2701
-44.2043
-44.0624
-43.8048
-43.3928
-42.7979
-42.009
-41.0357
-39.9071
-38.6675
-37.3707
-36.0748
-34.8363
-33.7054
-32.7206
-31.9054
-31.2662
</DataArray>
</CellData>
</Piece>
</RectilinearGrid>
</VTKFile>
