<?xml version="1.0"?>
<VTKFile type="RectilinearGrid">
<RectilinearGrid WholeExtent="0 100 0 0 0 0">
<Piece Extent="0 100 0 0 0 0">
<Coordinates>
<DataArray type="Float32" format="ascii">
0
10
20
30
40
50
60
70
80
90
100
110
120
130
140
150
160
170
180
190
200
210
220
230
240
250
260
270
280
290
300
310
320
330
340
350
360
370
380
390
400
410
420
430
440
450
460
470
480
490
500
510
520
530
540
550
560
570
580
590
600
610
620
630
640
650
660
670
680
690
700
710
720
730
740
750
760
770
780
790
800
810
820
830
840
850
860
870
880
890
900
910
920
930
940
950
960
970
980
990
1000
</DataArray>
<DataArray type="Float32" format="ascii">
0
</DataArray>
<DataArray type="Float32" format="ascii">
0
</DataArray>
</Coordinates>
<CellData>
<DataArray Name="h" type="Float32" format="ascii">
14.997
14.9927
14.9839
14.9671
14.9378
14.8909
14.8217
14.7271
14.6068
14.4636
14.3037
14.136
13.9711
13.8202
13.6932
13.5963
13.5307
13.4926
13.4746
13.4685
13.4681
13.4697
13.4715
13.4731
13.4745
13.4756
13.4765
13.4773
13.4779
13.4785
13.4789
13.4793
13.4796
13.4798
13.4799
13.4798
13.4788
13.4755
13.4654
13.4372
13.3652
13.1961
12.8436
12.2358
11.4546
10.7626
10.3341
10.1306
10.0506
10.0295
10.0465
10.1171
10.2966
10.6777
11.3166
12.094
12.7546
13.1623
13.3626
13.4479
13.4808
13.4925
13.4963
13.4974
13.4976
13.4975
13.4973
13.497
13.4968
13.4964
13.496
13.4955
13.4949
13.4942
13.4934
13.4924
13.4913
13.49
13.4891
13.4902
13.4969
13.5153
13.553
13.6171
13.7116
13.8355
13.9831
14.1451
14.3105
14.4687
14.6107
14.7301
14.8239
14.8925
14.9389
14.9678
14.9843
14.993
14.9971
14.9989
</DataArray>
<DataArray Name="hu" type="Float32" format="ascii">
30.0305
30.074
30.1644
30.3363
30.635
31.1113
31.8095
32.755
33.9437
35.3378
36.869
38.4468
39.9701
41.3408
42.4791
43.3382
43.9152
44.2495
44.4079
44.4609
44.4638
44.4493
44.4322
44.4169
44.404
44.3931
44.3835
44.3751
44.3677
44.361
44.3549
44.3493
44.3439
44.3385
44.3322
44.3225
44.3011
44.2428
44.0791
43.6375
42.5229
39.948
34.7405
26.2533
16.2056
8.07383
3.40706
1.28335
0.414575
0.0131144
-0.36706
-1.1449
-3.01336
-7.12227
-14.5023
-24.2548
-33.2204
-39.1108
-42.1231
-43.4338
-43.9474
-44.1336
-44.1971
-44.2184
-44.2264
-44.2306
-44.234
-44.2373
-44.2408
-44.2446
-44.249
-44.254
-44.2597
-44.2662
-44.2739
-44.2829
-44.2936
-44.3053
-44.3134
-44.3034
-44.2438
-44.0818
-43.7496
-43.1826
-42.3409
-41.2251
-39.8776
-38.3751
-36.8136
-35.2944
-33.909
-32.7271
-31.7876
-31.095
-30.6238
-30.3292
-30.1604
-30.072
-30.0297
-30.0112
</DataArray>
</CellData>
</Piece>
</RectilinearGrid>
</VTKFile>
