<?xml version="1.0"?>
<VTKFile type="RectilinearGrid">
<RectilinearGrid WholeExtent="0 100 0 0 0 0">
<Piece Extent="0 100 0 0 0 0">
<Coordinates>
<DataArray type="Float32" format="ascii">
0
10
20
30
40
50
60
70
80
90
100
110
120
130
140
150
160
170
180
190
200
210
220
230
240
250
260
270
280
290
300
310
320
330
340
350
360
370
380
390
400
410
420
430
440
450
460
470
480
490
500
510
520
530
540
550
560
570
580
590
600
610
620
630
640
650
660
670
680
690
700
710
720
730
740
750
760
770
780
790
800
810
820
830
840
850
860
870
880
890
900
910
920
930
940
950
960
970
980
990
1000
</DataArray>
<DataArray type="Float32" format="ascii">
0
</DataArray>
<DataArray type="Float32" format="ascii">
0
</DataArray>
</Coordinates>
<CellData>
<DataArray Name="h" type="Float32" format="ascii">
13.5488
13.5157
13.4924
13.4775
13.4687
13.4645
13.4631
13.4634
13.4646
13.4662
13.468
13.4697
13.4713
13.4728
13.4743
13.4756
13.4768
13.4779
13.4789
13.4798
13.4806
13.4813
13.4822
13.4833
13.4856
13.4907
13.5031
13.5335
13.6056
13.7676
14.0983
14.6713
15.4504
16.2393
16.8374
17.1976
17.3832
17.4701
17.5084
17.5245
17.531
17.5336
17.5346
17.5349
17.5351
17.5352
17.5352
17.5352
17.5352
17.5351
17.535
17.535
17.5349
17.5347
17.5345
17.5343
17.5338
17.5329
17.5306
17.5249
17.5112
17.4783
17.4026
17.2376
16.9077
16.3385
15.5572
14.7606
14.1621
13.8106
13.6353
13.556
13.5221
13.5081
13.5024
13.5001
13.499
13.4984
13.4978
13.4973
13.4967
13.4959
13.4951
13.4942
13.4931
13.492
13.4907
13.4893
13.4879
13.4864
13.485
13.4841
13.484
13.4856
13.4899
13.4985
13.5131
13.5356
13.5676
13.6105
</DataArray>
<DataArray Name="hu" type="Float32" format="ascii">
43.353
43.6558
43.8725
44.0187
44.1115
44.1669
44.1986
44.2166
44.2277
44.2362
44.244
44.2522
44.2608
44.2698
44.2789
44.2879
44.2965
44.3045
44.3117
44.318
44.3231
44.3269
44.3284
44.3254
44.3119
44.2725
44.1694
43.9112
43.289
41.8589
38.8213
33.2201
24.9962
16.0196
8.79196
4.26283
1.87452
0.742713
0.24085
0.0281592
-0.059214
-0.0946915
-0.109566
-0.116626
-0.120835
-0.124087
-0.12707
-0.130018
-0.133038
-0.136123
-0.139243
-0.142376
-0.145574
-0.148902
-0.152553
-0.157113
-0.164156
-0.177861
-0.208878
-0.283575
-0.464684
-0.89487
-1.87939
-4.00433
-8.16283
-15.062
-23.9714
-32.3927
-38.2589
-41.4998
-43.0534
-43.7414
-44.0316
-44.1496
-44.1958
-44.2128
-44.2181
-44.2186
-44.2167
-44.2134
-44.2091
-44.2036
-44.1972
-44.1899
-44.1818
-44.173
-44.1638
-44.1542
-44.1444
-44.1341
-44.1225
-44.1074
-44.085
-44.0489
-43.9894
-43.8938
-43.7467
-43.5318
-43.2338
-42.8405
</DataArray>
</CellData>
</Piece>
</RectilinearGrid>
</VTKFile>
