<?xml version="1.0"?>
<VTKFile type="RectilinearGrid">
<RectilinearGrid WholeExtent="0 100 0 0 0 0">
<Piece Extent="0 100 0 0 0 0">
<Coordinates>
<DataArray type="Float32" format="ascii">
0
10
20
30
40
50
60
70
80
90
100
110
120
130
140
150
160
170
180
190
200
210
220
230
240
250
260
270
280
290
300
310
320
330
340
350
360
370
380
390
400
410
420
430
440
450
460
470
480
490
500
510
520
530
540
550
560
570
580
590
600
610
620
630
640
650
660
670
680
690
700
710
720
730
740
750
760
770
780
790
800
810
820
830
840
850
860
870
880
890
900
910
920
930
940
950
960
970
980
990
1000
</DataArray>
<DataArray type="Float32" format="ascii">
0
</DataArray>
<DataArray type="Float32" format="ascii">
0
</DataArray>
</Coordinates>
<CellData>
<DataArray Name="h" type="Float32" format="ascii">
15
15
15
15
15
15
15
15
15
15
15
15
15
15
15
14.9998
14.9987
14.9928
14.97
14.9019
14.7454
14.4679
14.0922
13.7215
13.4903
13.4205
13.3416
13.0036
12.2351
11.2172
10.4603
10.1261
10.0265
10.0043
10.0006
10.0001
10
10
10
10
10
10
10
10
10
10
10
10
10
10
10
10
10
10
10
10
10
10
10
10
10
10
10
10.0001
10.0005
10.0042
10.0252
10.1197
10.4359
11.1599
12.1746
12.9886
13.3599
13.45
13.5238
13.7524
14.1153
14.483
14.754
14.906
14.9715
14.9932
14.9988
14.9998
15
15
15
15
15
15
15
15
15
15
15
15
15
15
15
15
</DataArray>
<DataArray Name="hu" type="Float32" format="ascii">
30
30
30
30
30
30
30
30
30
30
30
30
30
30
30.0002
30.0019
30.0135
30.073
30.3049
30.9939
32.5546
35.2492
38.77
42.1216
44.169
44.4976
42.9374
37.6047
26.5769
13.5014
4.79849
1.26926
0.263073
0.0430628
0.00548891
0.000531786
3.76186e-05
2.268e-06
6.7576e-09
1.22455e-11
0
0
0
0
0
0
0
0
0
0
0
0
0
0
0
0
0
0
0
-1.21105e-11
-6.73491e-09
-2.22551e-06
-3.55906e-05
-0.000508391
-0.00526923
-0.0412348
-0.250841
-1.20389
-4.53102
-12.7939
-25.6192
-36.9653
-42.6495
-44.3043
-43.9556
-41.9041
-38.585
-35.1137
-32.4713
-30.9533
-30.2899
-30.0689
-30.0127
-30.0018
-30.0002
-30
-30
-30
-30
-30
-30
-30
-30
-30
-30
-30
-30
-30
-30
-30
</DataArray>
</CellData>
</Piece>
</RectilinearGrid>
</VTKFile>
