<?xml version="1.0"?>
<VTKFile type="RectilinearGrid">
<RectilinearGrid WholeExtent="0 3500 0 0 0 0">
<Piece Extent="0 3500 0 0 0 0">
<Coordinates>
<DataArray type="Float32" format="ascii">
0
0.285714
0.571429
0.857143
1.14286
1.42857
1.71429
2
2.28571
2.57143
2.85714
3.14286
3.42857
3.71429
4
4.28571
4.57143
4.85714
5.14286
5.42857
5.71429
6
6.28571
6.57143
6.85714
7.14286
7.42857
7.71429
8
8.28572
8.57143
8.85714
9.14286
9.42857
9.71429
10
10.2857
10.5714
10.8571
11.1429
11.4286
11.7143
12
12.2857
12.5714
12.8571
13.1429
13.4286
13.7143
14
14.2857
14.5714
14.8571
15.1429
15.4286
15.7143
16
16.2857
16.5714
16.8571
17.1429
17.4286
17.7143
18
18.2857
18.5714
18.8571
19.1429
19.4286
19.7143
20
20.2857
20.5714
20.8571
21.1429
21.4286
21.7143
22
22.2857
22.5714
22.8571
23.1429
23.4286
23.7143
24
24.2857
24.5714
24.8571
25.1429
25.4286
25.7143
26
26.2857
26.5714
26.8571
27.1429
27.4286
27.7143
28
28.2857
28.5714
28.8571
29.1429
29.4286
29.7143
30
30.2857
30.5714
30.8571
31.1429
31.4286
31.7143
32
32.2857
32.5714
32.8571
33.1429
33.4286
33.7143
34
34.2857
34.5714
34.8571
35.1429
35.4286
35.7143
36
36.2857
36.5714
36.8571
37.1429
37.4286
37.7143
38
38.2857
38.5714
38.8571
39.1429
39.4286
39.7143
40
40.2857
40.5714
40.8571
41.1429
41.4286
41.7143
42
42.2857
42.5714
42.8571
43.1429
43.4286
43.7143
44
44.2857
44.5714
44.8571
45.1429
45.4286
45.7143
46
46.2857
46.5714
46.8571
47.1429
47.4286
47.7143
48
48.2857
48.5714
48.8571
49.1429
49.4286
49.7143
50
50.2857
50.5714
50.8571
51.1429
51.4286
51.7143
52
52.2857
52.5714
52.8571
53.1429
53.4286
53.7143
54
54.2857
54.5714
54.8571
55.1429
55.4286
55.7143
56
56.2857
56.5714
56.8571
57.1429
57.4286
57.7143
58
58.2857
58.5714
58.8571
59.1429
59.4286
59.7143
60
60.2857
60.5714
60.8571
61.1429
61.4286
61.7143
62
62.2857
62.5714
62.8571
63.1429
63.4286
63.7143
64
64.2857
64.5714
64.8571
65.1429
65.4286
65.7143
66
66.2857
66.5714
66.8571
67.1429
67.4286
67.7143
68
68.2857
68.5714
68.8571
69.1429
69.4286
69.7143
70
70.2857
70.5714
70.8571
71.1429
71.4286
71.7143
72
72.2857
72.5714
72.8571
73.1429
73.4286
73.7143
74
74.2857
74.5714
74.8571
75.1429
75.4286
75.7143
76
76.2857
76.5714
76.8571
77.1429
77.4286
77.7143
78
78.2857
78.5714
78.8571
79.1429
79.4286
79.7143
80
80.2857
80.5714
80.8571
81.1429
81.4286
81.7143
82
82.2857
82.5714
82.8571
83.1429
83.4286
83.7143
84
84.2857
84.5714
84.8571
85.1429
85.4286
85.7143
86
86.2857
86.5714
86.8571
87.1429
87.4286
87.7143
88
88.2857
88.5714
88.8571
89.1429
89.4286
89.7143
90
90.2857
90.5714
90.8571
91.1429
91.4286
91.7143
92
92.2857
92.5714
92.8571
93.1429
93.4286
93.7143
94
94.2857
94.5714
94.8571
95.1429
95.4286
95.7143
96
96.2857
96.5714
96.8571
97.1429
97.4286
97.7143
98
98.2857
98.5714
98.8571
99.1429
99.4286
99.7143
100
100.286
100.571
100.857
101.143
101.429
101.714
102
102.286
102.571
102.857
103.143
103.429
103.714
104
104.286
104.571
104.857
105.143
105.429
105.714
106
106.286
106.571
106.857
107.143
107.429
107.714
108
108.286
108.571
108.857
109.143
109.429
109.714
110
110.286
110.571
110.857
111.143
111.429
111.714
112
112.286
112.571
112.857
113.143
113.429
113.714
114
114.286
114.571
114.857
115.143
115.429
115.714
116
116.286
116.571
116.857
117.143
117.429
117.714
118
118.286
118.571
118.857
119.143
119.429
119.714
120
120.286
120.571
120.857
121.143
121.429
121.714
122
122.286
122.571
122.857
123.143
123.429
123.714
124
124.286
124.571
124.857
125.143
125.429
125.714
126
126.286
126.571
126.857
127.143
127.429
127.714
128
128.286
128.571
128.857
129.143
129.429
129.714
130
130.286
130.571
130.857
131.143
131.429
131.714
132
132.286
132.571
132.857
133.143
133.429
133.714
134
134.286
134.571
134.857
135.143
135.429
135.714
136
136.286
136.571
136.857
137.143
137.429
137.714
138
138.286
138.571
138.857
139.143
139.429
139.714
140
140.286
140.571
140.857
141.143
141.429
141.714
142
142.286
142.571
142.857
143.143
143.429
143.714
144
144.286
144.571
144.857
145.143
145.429
145.714
146
146.286
146.571
146.857
147.143
147.429
147.714
148
148.286
148.571
148.857
149.143
149.429
149.714
150
150.286
150.571
150.857
151.143
151.429
151.714
152
152.286
152.571
152.857
153.143
153.429
153.714
154
154.286
154.571
154.857
155.143
155.429
155.714
156
156.286
156.571
156.857
157.143
157.429
157.714
158
158.286
158.571
158.857
159.143
159.429
159.714
160
160.286
160.571
160.857
161.143
161.429
161.714
162
162.286
162.571
162.857
163.143
163.429
163.714
164
164.286
164.571
164.857
165.143
165.429
165.714
166
166.286
166.571
166.857
167.143
167.429
167.714
168
168.286
168.571
168.857
169.143
169.429
169.714
170
170.286
170.571
170.857
171.143
171.429
171.714
172
172.286
172.571
172.857
173.143
173.429
173.714
174
174.286
174.571
174.857
175.143
175.429
175.714
176
176.286
176.571
176.857
177.143
177.429
177.714
178
178.286
178.571
178.857
179.143
179.429
179.714
180
180.286
180.571
180.857
181.143
181.429
181.714
182
182.286
182.571
182.857
183.143
183.429
183.714
184
184.286
184.571
184.857
185.143
185.429
185.714
186
186.286
186.571
186.857
187.143
187.429
187.714
188
188.286
188.571
188.857
189.143
189.429
189.714
190
190.286
190.571
190.857
191.143
191.429
191.714
192
192.286
192.571
192.857
193.143
193.429
193.714
194
194.286
194.571
194.857
195.143
195.429
195.714
196
196.286
196.571
196.857
197.143
197.429
197.714
198
198.286
198.571
198.857
199.143
199.429
199.714
200
200.286
200.571
200.857
201.143
201.429
201.714
202
202.286
202.571
202.857
203.143
203.429
203.714
204
204.286
204.571
204.857
205.143
205.429
205.714
206
206.286
206.571
206.857
207.143
207.429
207.714
208
208.286
208.571
208.857
209.143
209.429
209.714
210
210.286
210.571
210.857
211.143
211.429
211.714
212
212.286
212.571
212.857
213.143
213.429
213.714
214
214.286
214.571
214.857
215.143
215.429
215.714
216
216.286
216.571
216.857
217.143
217.429
217.714
218
218.286
218.571
218.857
219.143
219.429
219.714
220
220.286
220.571
220.857
221.143
221.429
221.714
222
222.286
222.571
222.857
223.143
223.429
223.714
224
224.286
224.571
224.857
225.143
225.429
225.714
226
226.286
226.571
226.857
227.143
227.429
227.714
228
228.286
228.571
228.857
229.143
229.429
229.714
230
230.286
230.571
230.857
231.143
231.429
231.714
232
232.286
232.571
232.857
233.143
233.429
233.714
234
234.286
234.571
234.857
235.143
235.429
235.714
236
236.286
236.571
236.857
237.143
237.429
237.714
238
238.286
238.571
238.857
239.143
239.429
239.714
240
240.286
240.571
240.857
241.143
241.429
241.714
242
242.286
242.571
242.857
243.143
243.429
243.714
244
244.286
244.571
244.857
245.143
245.429
245.714
246
246.286
246.571
246.857
247.143
247.429
247.714
248
248.286
248.571
248.857
249.143
249.429
249.714
250
250.286
250.571
250.857
251.143
251.429
251.714
252
252.286
252.571
252.857
253.143
253.429
253.714
254
254.286
254.571
254.857
255.143
255.429
255.714
256
256.286
256.571
256.857
257.143
257.429
257.714
258
258.286
258.571
258.857
259.143
259.429
259.714
260
260.286
260.571
260.857
261.143
261.429
261.714
262
262.286
262.571
262.857
263.143
263.429
263.714
264
264.286
264.571
264.857
265.143
265.429
265.714
266
266.286
266.571
266.857
267.143
267.429
267.714
268
268.286
268.571
268.857
269.143
269.429
269.714
270
270.286
270.571
270.857
271.143
271.429
271.714
272
272.286
272.571
272.857
273.143
273.429
273.714
274
274.286
274.571
274.857
275.143
275.429
275.714
276
276.286
276.571
276.857
277.143
277.429
277.714
278
278.286
278.571
278.857
279.143
279.429
279.714
280
280.286
280.571
280.857
281.143
281.429
281.714
282
282.286
282.571
282.857
283.143
283.429
283.714
284
284.286
284.571
284.857
285.143
285.429
285.714
286
286.286
286.571
286.857
287.143
287.429
287.714
288
288.286
288.571
288.857
289.143
289.429
289.714
290
290.286
290.571
290.857
291.143
291.429
291.714
292
292.286
292.571
292.857
293.143
293.429
293.714
294
294.286
294.571
294.857
295.143
295.429
295.714
296
296.286
296.571
296.857
297.143
297.429
297.714
298
298.286
298.571
298.857
299.143
299.429
299.714
300
300.286
300.571
300.857
301.143
301.429
301.714
302
302.286
302.571
302.857
303.143
303.429
303.714
304
304.286
304.571
304.857
305.143
305.429
305.714
306
306.286
306.571
306.857
307.143
307.429
307.714
308
308.286
308.571
308.857
309.143
309.429
309.714
310
310.286
310.571
310.857
311.143
311.429
311.714
312
312.286
312.571
312.857
313.143
313.429
313.714
314
314.286
314.571
314.857
315.143
315.429
315.714
316
316.286
316.571
316.857
317.143
317.429
317.714
318
318.286
318.571
318.857
319.143
319.429
319.714
320
320.286
320.571
320.857
321.143
321.429
321.714
322
322.286
322.571
322.857
323.143
323.429
323.714
324
324.286
324.571
324.857
325.143
325.429
325.714
326
326.286
326.571
326.857
327.143
327.429
327.714
328
328.286
328.571
328.857
329.143
329.429
329.714
330
330.286
330.571
330.857
331.143
331.429
331.714
332
332.286
332.571
332.857
333.143
333.429
333.714
334
334.286
334.571
334.857
335.143
335.429
335.714
336
336.286
336.571
336.857
337.143
337.429
337.714
338
338.286
338.571
338.857
339.143
339.429
339.714
340
340.286
340.571
340.857
341.143
341.429
341.714
342
342.286
342.571
342.857
343.143
343.429
343.714
344
344.286
344.571
344.857
345.143
345.429
345.714
346
346.286
346.571
346.857
347.143
347.429
347.714
348
348.286
348.571
348.857
349.143
349.429
349.714
350
350.286
350.571
350.857
351.143
351.429
351.714
352
352.286
352.571
352.857
353.143
353.429
353.714
354
354.286
354.571
354.857
355.143
355.429
355.714
356
356.286
356.571
356.857
357.143
357.429
357.714
358
358.286
358.571
358.857
359.143
359.429
359.714
360
360.286
360.571
360.857
361.143
361.429
361.714
362
362.286
362.571
362.857
363.143
363.429
363.714
364
364.286
364.571
364.857
365.143
365.429
365.714
366
366.286
366.571
366.857
367.143
367.429
367.714
368
368.286
368.571
368.857
369.143
369.429
369.714
370
370.286
370.571
370.857
371.143
371.429
371.714
372
372.286
372.571
372.857
373.143
373.429
373.714
374
374.286
374.571
374.857
375.143
375.429
375.714
376
376.286
376.571
376.857
377.143
377.429
377.714
378
378.286
378.571
378.857
[...]
<CellData>
<DataArray Name="h" type="Float32" format="ascii">
14
14
14
14
14
14
14
14
14
14
14
14
14
14
14
14
14
14
14
14
14
14
14
14
14
14
14
14
14
14
14
14
14
14
14
14
14
14
14
14
14
14
14
14
14
14
14
14
14
14
14
14
14
14
14
14
14
14
14
14
14
14
14
14
14
14
14
14
14
14
14
14
14
14
14
14
14
14
14
14
14
14
14
14
14
14
14
14
14
14
14
14
14
14
14
14
14
14
14
14
14
14
14
14
14
14
14
14
14
14
14
14
14
14
14
14
14
14
14
14
14
14
14
14
14
14
14
14
14
14
14
14
14
14
14
14
14
14
14
14
14
14
14
14
14
14
14
14
14
14
14
14
14
14
14
14
13.9999
13.9999
13.9999
13.9999
13.9999
13.9999
13.9999
13.9999
13.9999
13.9999
13.9999
13.9999
13.9999
13.9999
13.9999
13.9999
13.9999
13.9999
13.9998
13.9998
13.9998
13.9998
13.9997
13.9997
13.9996
13.9996
13.9995
13.9994
13.9993
13.9991
13.999
13.9988
13.9986
13.9984
13.9981
13.9978
13.9974
13.997
13.9966
13.996
13.9954
13.9948
13.994
13.9931
13.9922
13.9911
13.9899
13.9886
13.9871
13.9855
13.9838
13.9818
13.9797
13.9774
13.9749
13.9721
13.9692
13.966
13.9626
13.9589
13.9549
13.9507
13.9462
13.9415
13.9364
13.931
13.9254
13.9194
13.9131
13.9065
13.8996
13.8924
13.8848
13.8769
13.8688
13.8603
13.8515
13.8423
13.8329
13.8232
13.8131
13.8028
13.7922
13.7813
13.7701
13.7586
13.7469
13.7349
13.7226
13.7101
13.6973
13.6843
13.6711
13.6577
13.644
13.6301
13.616
13.6017
13.5872
13.5725
13.5577
13.5426
13.5274
13.512
13.4965
13.4808
13.465
13.449
13.4328
13.4166
13.4001
13.3836
13.367
13.3502
13.3333
13.3163
13.2992
13.282
13.2647
13.2473
13.2298
13.2122
13.1945
13.1767
13.1589
13.1409
13.1229
13.1049
13.0867
13.0685
13.0502
13.0318
13.0134
12.9949
12.9764
12.9578
12.9391
12.9204
12.9016
12.8828
12.8639
12.845
12.826
12.807
12.7879
12.7688
12.7496
12.7304
12.7112
12.6919
12.6726
12.6533
12.6339
12.6144
12.595
12.5755
12.5559
12.5364
12.5168
12.4971
12.4775
12.4578
12.4381
12.4183
12.3985
12.3787
12.3589
12.339
12.3191
12.2992
12.2792
12.2593
12.2393
12.2193
12.1992
12.1791
12.159
12.1389
12.1188
12.0986
12.0784
12.0582
12.038
12.0178
11.9975
11.9772
11.9569
11.9366
11.9162
11.8958
11.8754
11.855
11.8346
11.8141
11.7937
11.7732
11.7527
11.7321
11.7116
11.691
11.6704
11.6498
11.6292
11.6086
11.5879
11.5672
11.5465
11.5258
11.5051
11.4844
11.4636
11.4428
11.422
11.4012
11.3804
11.3595
11.3387
11.3178
11.2969
11.276
11.255
11.2341
11.2131
11.1921
11.1712
11.1501
11.1291
11.1081
11.087
11.0659
11.0448
11.0237
11.0026
10.9814
10.9602
10.9391
10.9179
10.8967
10.8754
10.8542
10.8329
10.8116
10.7903
10.769
10.7477
10.7263
10.705
10.6836
10.6622
10.6408
10.6193
10.5979
10.5764
10.5549
10.5334
10.5119
10.4904
10.4688
10.4473
10.4257
10.4041
10.3824
10.3608
10.3391
10.3175
10.2958
10.2741
10.2523
10.2306
10.2088
10.187
10.1652
10.1434
10.1216
10.0997
10.0779
10.056
10.034
10.0121
9.99017
9.9682
9.94622
9.92421
9.90219
9.88015
9.85809
9.836
9.8139
9.79178
9.76964
9.74749
9.72531
9.70311
9.68089
9.65866
9.6364
9.61412
9.59182
9.5695
9.54716
9.52481
9.50243
9.48003
9.45761
9.43517
9.41271
9.39023
9.36772
9.3452
9.32266
9.30009
9.2775
9.2549
9.23227
9.20962
9.18695
9.16426
9.14154
9.1188
9.09605
9.07327
9.05047
9.02765
9.0048
8.98194
8.95905
8.93615
8.91322
8.89027
8.8673
8.8443
8.82129
8.79825
8.7752
8.75212
8.72902
8.7059
8.68277
8.65961
8.63643
8.61322
8.59
8.56677
8.54351
8.52023
8.49693
8.47362
8.45028
8.42693
8.40357
8.38018
8.35678
8.33337
8.30994
8.2865
8.26304
8.23957
8.21609
8.1926
8.1691
8.14559
8.12207
8.09855
8.07502
8.05149
8.02796
8.00443
7.9809
7.95737
7.93385
7.91034
7.88684
7.86336
7.83989
7.81645
7.79302
7.76963
7.74627
7.72294
7.69965
7.67641
7.65322
7.63009
7.60702
7.58403
7.56111
7.53827
7.51553
7.4929
7.47038
7.44798
7.42572
7.40361
7.38166
7.35989
7.33831
7.31694
7.2958
7.2749
7.25427
7.23393
7.21389
7.19419
7.17485
7.15589
7.13734
7.11924
7.1016
7.08446
7.06784
7.05179
7.03632
7.02146
7.00724
6.99369
6.98083
6.96867
6.95724
6.94654
6.93658
6.92737
6.9189
6.91115
6.90412
6.89777
6.8921
6.88705
6.8826
6.87871
6.87532
6.8724
6.86991
6.86778
6.86599
6.86448
6.86322
6.86217
6.86129
6.86056
6.85995
6.85943
6.85899
6.85861
6.85828
6.85798
6.85772
6.85747
6.85724
6.85703
6.85682
6.85662
6.85643
6.85624
6.85606
6.85588
6.85571
6.85554
6.85538
6.85522
6.85506
6.85491
6.85476
6.85461
6.85447
6.85433
6.8542
6.85407
6.85394
6.85382
6.8537
6.85358
6.85347
6.85335
6.85324
6.85314
6.85304
6.85293
6.85284
6.85274
6.85265
6.85256
6.85247
6.85238
6.85229
6.85221
6.85213
6.85205
6.85197
6.85189
6.85182
6.85174
6.85167
6.8516
6.85153
6.85146
6.85139
6.85132
6.85126
6.85119
6.85113
6.85106
6.851
6.85094
6.85088
6.85082
6.85077
6.85071
6.85066
6.8506
6.85055
6.85049
6.85044
6.85039
6.85034
6.85029
6.85024
6.85019
6.85015
6.8501
6.85005
6.85001
6.84996
6.84992
6.84988
6.84983
6.84979
6.84975
6.84971
6.84967
6.84962
6.84959
6.84955
6.84951
6.84947
6.84944
6.8494
6.84936
6.84932
6.84929
6.84925
6.84922
6.84918
6.84915
6.84911
6.84908
6.84905
6.84902
6.84899
6.84895
6.84892
6.84889
6.84886
6.84883
6.8488
6.84877
6.84874
6.84871
6.84868
6.84865
6.84862
6.84859
6.84857
6.84854
6.84852
6.84849
6.84846
6.84843
6.84841
6.84838
6.84836
6.84833
6.8483
6.84828
6.84825
6.84823
6.8482
6.84818
6.84815
6.84813
6.84811
6.84809
6.84806
6.84804
6.84802
6.848
6.84798
6.84796
6.84793
6.84791
6.84789
6.84787
6.84785
6.84783
6.84781
6.84778
6.84776
6.84774
6.84772
6.8477
6.84768
6.84766
6.84764
6.84762
6.8476
6.84758
6.84756
6.84754
6.84752
6.84751
6.84749
6.84747
6.84745
6.84743
6.84741
6.8474
6.84738
6.84736
6.84734
6.84733
6.84731
6.84729
6.84727
6.84726
6.84724
6.84722
6.84721
6.84719
6.84717
6.84715
6.84714
6.84712
6.8471
6.84709
6.84707
6.84705
6.84704
6.84702
6.84701
6.84699
6.84697
6.84696
6.84694
6.84693
6.84691
6.8469
6.84688
6.84687
6.84685
6.84684
6.84682
6.84681
6.8468
6.84678
6.84677
6.84675
6.84674
6.84672
6.84671
6.8467
6.84668
6.84667
6.84665
6.84664
6.84663
6.84661
6.8466
6.84659
6.84657
6.84656
6.84654
6.84653
6.84652
6.8465
6.84649
6.84648
6.84646
6.84645
6.84644
6.84642
6.84641
6.8464
6.84638
6.84637
6.84636
6.84634
6.84633
6.84632
6.84631
6.84629
6.84628
6.84627
6.84625
6.84624
6.84623
6.84622
6.84621
6.84619
6.84618
6.84617
6.84616
6.84614
6.84613
6.84612
6.84611
6.8461
6.84608
6.84607
6.84606
6.84605
6.84604
6.84602
6.84601
6.846
6.84599
6.84598
6.84597
6.84595
6.84594
6.84593
6.84592
6.84591
6.8459
6.84589
6.84587
6.84586
6.84585
6.84584
6.84583
6.84582
6.84581
6.8458
6.84578
6.84577
6.84576
6.84575
6.84574
6.84573
6.84572
6.84571
6.8457
6.84568
6.84567
6.84566
6.84565
6.84564
6.84563
6.84562
6.84561
6.8456
6.84559
6.84557
6.84556
6.84555
6.84554
6.84553
6.84552
6.84551
6.8455
6.84549
6.84548
6.84547
6.84546
6.84545
6.84544
6.84543
6.84542
6.8454
6.84539
6.84538
6.84537
6.84536
6.84535
6.84534
6.84533
6.84532
6.84531
6.8453
6.84528
6.84527
6.84526
6.84525
6.84524
6.84523
6.84522
6.84521
6.8452
6.84519
6.84518
6.84517
6.84515
6.84514
6.84513
6.84512
6.84511
6.8451
6.84509
6.84508
6.84507
6.84506
6.84505
6.84504
6.84503
6.84502
6.84501
6.845
6.84499
6.84498
6.84497
6.84496
6.84495
6.84494
6.84492
6.84491
6.8449
6.84489
6.84488
6.84487
6.84486
6.84485
6.84484
6.84483
6.84482
6.84481
6.8448
6.84479
6.84478
6.84476
6.84475
6.84474
6.84473
6.84472
6.84471
6.8447
6.84469
6.84468
6.84467
6.84466
6.84465
6.84464
6.84463
6.84461
6.8446
6.84459
6.84458
6.84457
6.84456
6.84455
6.84454
6.84453
6.84452
6.84451
6.8445
6.84448
6.84447
6.84446
6.84445
6.84444
6.84443
6.84442
6.84441
6.84439
6.84438
6.84437
6.84436
6.84435
6.84434
6.84433
6.84432
6.8443
6.84429
6.84428
6.84427
6.84426
6.84425
6.84424
6.84423
6.84421
6.8442
6.84419
6.84418
6.84417
6.84416
6.84415
6.84414
6.84412
6.84411
6.8441
6.84409
6.84408
6.84406
6.84405
6.84404
6.84403
6.84401
6.844
6.84399
6.84398
6.84397
6.84395
6.84394
6.84393
6.84392
6.84391
6.84389
6.84388
6.84387
6.84386
6.84385
6.84384
6.84382
6.84381
6.8438
6.84379
6.84377
6.84376
6.84374
6.84373
6.84372
6.84371
6.84369
6.84368
6.84367
6.84366
6.84364
6.84363
6.84362
6.8436
6.84359
6.84358
6.84357
6.84355
6.84354
6.84353
6.84351
6.8435
6.84349
6.84347
6.84346
6.84344
6.84343
6.84341
6.8434
6.84339
6.84337
6.84336
6.84335
6.84333
6.84332
6.8433
6.84329
6.84328
6.84326
6.84325
6.84323
6.84322
6.8432
6.84319
6.84318
6.84316
6.84315
6.84313
6.84312
6.8431
6.84308
6.84307
6.84305
6.84304
6.84302
6.84301
6.84299
6.84298
6.84296
6.84295
6.84293
6.84292
6.8429
6.84288
6.84287
6.84285
6.84284
6.84282
6.84281
6.84279
6.84277
6.84275
6.84274
6.84272
6.8427
6.84268
6.84266
6.84265
6.84263
6.84262
6.8426
6.84259
6.84257
6.84255
6.84253
6.84251
6.84249
6.84247
6.84246
6.84244
6.84242
6.84241
6.84239
6.84237
6.84235
6.84233
6.84231
6.84228
6.84226
6.84224
6.84222
6.8422
6.84219
6.84217
6.84216
6.84214
6.84212
6.8421
6.84207
6.84205
6.84203
6.842
6.84199
6.84197
6.84195
6.84194
6.84192
6.8419
6.84187
6.84184
6.84181
6.84178
6.84175
6.84173
6.84171
6.8417
6.84168
6.84167
6.84165
6.84162
6.8416
6.84157
6.84154
6.84151
6.84148
6.84146
6.84144
6.84142
6.84141
6.84139
6.84137
6.84135
6.84131
6.84127
6.84123
6.84119
6.84116
6.84114
6.84111
6.84108
6.84101
6.84086
6.84047
6.83947
6.83696
6.83059
6.81413
6.77151
6.66197
6.38437
5.73243
4.53476
3.44077
3.07213
3.00962
3.00123
3.00016
3.00002
3
3
3
3
3
3
3
3
3
3
3
3
3
3
3
3
3
3
3
3
3
3
3
3
3
3
3
3
3
3
3
3
3
3
3
3
3
3
3
3
3
3
3
3
3
3
3
3
3
3
3
3
3
3
3
3
3
3
3
3
3
3
3
3
3
3
3
3
3
3
3
3
3
3
3
3
3
3
3
3
3
3
3
3
3
3
3
3
3
3
3
3
3
3
3
3
3
3
3
3
3
3
3
3
3
3
3
3
3
3
3
3
3
3
3
3
3
3
3
3
3
3
3
3
3
3
3
3
3
3
3
3
3
3
3
3
3
3
3
3
3
3
3
3
3
3
3
3
3
3
3
3
3
3
3
3
3
3
3
3
3
3
3
3
3
3
3
3
3
3
3
3
3
3
3
3
3
3
3
3
3
3
3
3
3
3
3
3
3
3
3
3
3
3
3
3
3
3
3
3
3
3
3
3
3
3
3
3
3
3
3
3
3
3
3
3
3
3
3
3
3
3
3
3
3
3
3
3
3
3
3
3
3
3
3
3
3
3
3
3
3
3
3
3
3
3
3
3
3
3
3
3
3
3
3
3
3
3
3
3
3
3
3
3
3
3
3
3
3
3
3
3
3
3
3
3
3
3
3
3
3
3
3
3
3
3
3
3
3
3
3
3
3
3
3
3
3
3
3
3
3
3
3
3
3
3
3
3
3
3
3
3
3
3
3
3
3
3
3
3
3
3
3
3
3
3
3
3
3
3
3
3
3
3
3
3
3
3
3
3
3
3
3
3
3
3
3
3
3
3
3
3
3
3
3
3
3
3
3
3
3
3
3
3
3
3
3
3
3
3
3
3
3
3
3
3
3
3
3
3
3
3
3
3
3
3
3
3
3
3
3
3
3
3
3
3
3
3
3
3
3
3
3
3
3
3
3
3
3
3
3
3
3
3
3
3
3
3
3
3
3
3
3
3
3
3
3
3
3
3
3
3
3
3
3
3
3
3
3
3
3
3
3
3
3
3
3
3
3
3
3
3
3
3
3
3
3
3
3
3
3
3
3
3
3
3
3
3
3
3
3
3
3
3
3
3
3
3
3
3
3
3
3
3
3
3
3
3
3
3
3
3
3
3
3
3
3
3
3
3
3
3
3
3
3
3
3
3
3
3
3
3
3
3
3
3
3
3
3
3
3
3
3
3
3
3
3
3
3
3
3
3
3
3
3
3
3
3
3
3
3
3
3
3
3
3
3
3
3
3
3
3
3
3
3
3
3
3
3
3
3
3
3
3
3
3
3
3
3
3
3
3
3
3
3
3
3
3
3
3
3
3
3
3
3
3
3
3
3
3
3
3
3
3
3
3
3
3
3
3
3
3
3
3
3
3
3
3
3
3
3
3
3
3
3
3
3
3
3
3
3
3
3
3
3
3
3
3
3
3
3
3
3
3
3
3
3
3
3
3
3
3
3
3
3
3
3
3
3
3
3
3
3
3
3
3
3
3
3
3
3
3
3
3
3
3
3
3
3
3
3
3
3
3
3
3
3
3
3
3
3
3
3
3
3
3
3
3
3
3
3
3
3
3
3
3
3
3
3
3
3
3
3
3
3
3
3
3
3
3
3
3
3
3
3
3
3
3
3
3
3
3
3
3
3
3
3
3
3
3
3
3
3
3
3
3
3
3
3
3
3
3
3
3
3
3
3
3
3
3
3
3
3
3
3
3
3
3
3
3
3
3
3
3
3
3
3
3
3
3
3
3
3
3
3
3
3
3
3
3
3
3
3
3
3
3
3
3
3
3
3
3
3
3
3
3
3
3
3
3
3
3
3
3
3
3
3
3
3
3
3
3
3
3
3
3
3
3
3
3
3
3
3
3
3
3
3
3
3
3
3
3
3
3
3
3
3
3
3
3
3
3
3
3
3
3
3
3
3
3
3
3
3
3
3
3
3
3
3
3
3
3
3
3
3
3
3
3
3
3
3
3
3
3
3
3
3
3
3
3
3
3
3
3
3
3
3
3
3
3
3
3
3
3
3
3
3
3
3
3
3
3
3
3
3
3
3
3
3
3
3
3
3
3
3
3
3
3
3
3
3
3
3
3
3
3
3
3
3
3
3
3
3
3
3
3
3
3
3
3
3
3
3
3
3
3
3
3
3
3
3
3
3
3
3
3
3
3
3
3
3
3
3
3
3
3
3
3
3
3
3
3
3
3
3
3
3
3
3
3
3
3
3
3
3
3
3
3
3
3
3
3
3
3
3
3
3
3
3
3
3
3
3
3
3
3
3
3
3
3
3
3
3
3
3
3
3
3
3
3
3
3
3
3
3
3
3
3
3
3
3
3
3
3
3
3
3
3
3
3
3
3
3
3
3
3
3
3
3
3
3
3
3
3
3
3
3
3
3
3
3
3
3
3
3
3
3
3
3
3
3
3
3
3
3
3
3
3
3
3
3
3
3
3
3
3
3
3
3
3
3
3
3
3
3
3
3
3
3
3
3
3
3
3
3
3
3
3
3
3
3
3
3
3
3
3
3
3
3
3
3
3
3
3
3
3
3
3
3
3
3
3
3
3
3
3
3
3
3
3
3
3
3
3
3
3
3
3
3
3
3
3
3
3
3
3
3
3
3
3
3
3
3
3
3
3
3
3
3
3
3
3
3
3
3
3
3
3
3
3
3
3
3
3
3
3
3
3
3
3
3
3
3
3
3
3
3
3
3
3
3
3
3
3
3
3
3
3
3
3
3
3
3
3
3
3
3
3
3
3
3
3
3
3
3
3
3
3
3
3
3
3
3
3
3
3
3
3
3
3
3
3
3
3
3
3
3
3
3
3
3
3
3
3
3
3
3
3
3
3
3
3
3
3
3
3
3
3
3
3
3
3
3
3
3
3
3
3
3
3
3
3
3
3
3
3
3
3
3
3
3
3
3
3
3
3
3
3
3
3
3
3
3
3
3
3
3
3
3
3
3
3
3
3
3
3
3
3
3
3
3
3
3
3
3
3
3
3
3
3
3
3
3
3
3
3
3
3
3
3
3
3
3
3
3
3
3
3
3
3
3
3
3
3
3
3
3
3
3
3
3
3
3
3
3
3
3
3
3
3
3
3
3
3
3
3
3
3
3
3
3
3
3
3
3
3
3
3
3
3
3
3
3
3
3
3
3
3
3
3
3
3
3
3
3
3
3
3
3
3
3
3
3
3
3
3
3
3
3
3
3
3
3
3
3
3
3
3
3
3
3
3
3
3
3
3
3
3
3
3
3
3
3
3
3
3
3
3
3
3
3
3
3
3
3
3
3
3
3
3
3
3
3
3
3
3
3
3
3
3
3
3
3
3
3
3
3
3
3
3
3
3
3
3
3
3
3
3
3
3
3
3
3
3
3
3
3
3
3
3
3
3
3
3
3
3
3
3
3
3
3
3
3
3
3
3
3
3
3
3
3
3
3
3
3
3
3
3
3
3
3
3
3
3
3
3
3
3
3
3
3
3
3
3
3
3
3
3
3
3
3
3
3
3
3
3
3
3
3
3
3
3
3
3
3
3
3
3
3
3
3
3
3
3
3
3
3
3
3
3
3
3
3
3
3
3
3
3
3
3
3
3
3
3
3
3
3
3
3
3
3
3
3
3
3
3
3
3
3
3
3
3
3
3
3
3
3
3
3
3
3
3
3
3
3
3
3
3
3
3
3
3
3
3
3
3
3
3
3
3
3
3
3
3
3
3
3
3
3
3
3
3
3
3
3
3
3
3
3
3
3
3
3
3
3
3
3
3
3
3
3
3
3
3
3
3
3
3
3
3
3
3
3
3
3
3
3
3
3
3
3
3
3
3
3
3
3
3
3
3
3
3
3
3
3
3
3
3
3
3
3
3
3
3
3
3
3
3
3
3
3
3
3
3
3
3
3
3
3
3
3
3
3
3
3
3
3
3
3
3
3
3
3
3
3
3
3
3
3
3
3
3
3
3
3
3
3
3
3
3
3
3
3
3
3
3
3
3
3
3
3
3
3
3
3
3
3
3
3
3
3
3
3
3
3
3
3
3
3
3
3
3
3
3
3
3
3
3
3
3
3
3
3
3
3
3
3
3
3
3
3
3
3
3
3
3
3
3
3
3
3
3
3
3
3
3
3
3
3
3
3
3
3
3
3
3
3
3
3
3
3
3
3
3
3
3
3
3
3
3
3
3
3
3
3
3
3
3
3
3
3
3
3
3
3
3
3
3
3
3
3
3
3
3
3
3
3
3
3
3
3
3
3
3
3
3
3
3
3
3
3
3
3
3
3
3
3
3
3
3
3
3
3
3
3
3
3
3
3
3
3
3
3
3
3
3
3
3
3
3
3
3
3
3
3
3
3
3
3
3
3
3
3
3
3
3
3
3
3
3
3
3
3
3
3
3
3
3
3
3
3
3
3
3
3
3
3
3
3
3
3
3
3
3
3
3
3
3
3
3
3
3
3
3
3
3
3
3
3
3
3
3
3
3
3
3
3
3
3
3
3
3
3
3
3
3
3
3
3
3
3
3
3
3
3
3
3
3
3
3
3
3
3
3
3
3
3
3
3
3
3
3
3
3
3
3
3
3
3
3
3
3
3
3
3
3
3
3
3
3
3
3
3
3
3
3
3
3
3
3
3
3
3
3
3
3
3
3
3
3
3
3
3
3
3
3
3
3
3
3
3
3
3
3
3
3
3
3
3
3
3
3
3
3
3
3
3
3
3
3
3
3
3
3
3
3
3
3
3
3
3
3
3
3
3
3
3
3
3
3
3
3
3
3
3
3
3
3
3
3
3
3
3
3
3
3
3
3
3
3
3
3
3
3
3
3
3
3
3
3
3
3
3
3
3
3
3
3
3
3
3
3
3
3
3
3
3
3
3
3
3
3
3
3
3
3
3
3
3
3
3
3
3
3
3
3
3
3
3
3
3
3
3
3
3
3
3
3
3
3
3
3
3
3
3
3
3
3
3
3
3
3
3
3
3
3
3
3
3
3
3
3
3
3
3
3
3
3
3
3
3
3
3
3
3
3
3
3
3
3
3
3
3
3
3
3
3
3
3
3
3
3
3
3
3
3
3
3
3
3
3
3
3
3
3
3
3
3
3
3
3
3
3
</DataArray>
<DataArray Name="hu" type="Float32" format="ascii">
0
0
0
0
0
0
0
0
0
0
0
0
0
0
0
0
0
0
0
0
0
0
0
0
0
0
0
0
0
0
0
0
0
0
0
0
0
0
0
0
0
0
0
0
0
0
0
0
0
0
0
0
0
0
0
0
0
0
0
0
0
0
0
0
0
0
0
0
0
0
0
0
0
0
0
0
0
0
0
0
0
0
0
0
0
0
0
0
0
0
0
0
0
0
0
0
0
2.8026e-45
2.52234e-44
2.41023e-43
2.27431e-42
2.14076e-41
2.01783e-40
1.90339e-39
1.79511e-38
1.69096e-37
1.58924e-36
1.48863e-35
1.38835e-34
1.28809e-33
1.18808e-32
1.08891e-31
9.91457e-31
8.96773e-30
8.05938e-29
7.1999e-28
6.39842e-27
5.66236e-26
4.99756e-25
4.40908e-24
3.90201e-23
3.48148e-22
3.1506e-21
2.90681e-20
2.73829e-19
2.62296e-18
2.53187e-17
2.43732e-16
2.32342e-15
2.19128e-14
2.05071e-13
1.90493e-12
1.75532e-11
1.61169e-10
1.52838e-09
1.50255e-08
1.69625e-07
1.65391e-06
1.06321e-05
2.90483e-05
5.17504e-05
7.72772e-05
0.000101884
0.000124514
0.000152822
0.000184986
0.000217703
0.000247558
0.000275403
0.000307
0.000336969
0.000366136
0.000395773
0.000423719
0.000453101
0.000484381
0.000515953
0.000543373
0.000570597
0.000601806
0.00063271
0.000664479
0.000697716
0.00073007
0.000760552
0.000792444
0.000822984
0.000861939
0.000919685
0.000990221
0.00106915
0.00117084
0.0013042
0.00147145
0.00167898
0.00193185
0.00224587
0.00262801
0.00308998
0.0036481
0.00431104
0.00509547
0.00602383
0.00711919
0.00841003
0.00992235
0.0116916
0.0137482
0.0161296
0.0188861
0.0220683
0.0257314
0.0299292
0.0347261
0.0401904
0.0463952
0.0534209
0.0613516
0.0702788
0.0802946
0.0915033
0.104011
0.117919
0.13334
0.150393
0.169207
0.189899
0.212587
0.237401
0.264458
0.293875
0.325777
0.360282
0.397497
0.437546
0.480533
0.52655
0.575702
0.628066
0.683718
0.742731
0.805166
0.871072
0.940503
1.01349
1.09006
1.17022
1.25399
1.34138
1.43237
1.52693
1.62505
1.7267
1.83183
1.94039
2.05235
2.16765
2.28622
2.40799
2.5329
2.66087
2.79183
2.92571
3.06242
3.20188
3.34402
3.48873
3.63594
3.78558
3.93755
4.09177
4.24816
4.40663
4.56712
4.72954
4.89381
5.05985
5.2276
5.39698
5.56792
5.74034
5.91419
6.0894
6.2659
6.44363
6.62253
6.80254
6.98361
7.16568
7.34871
7.53265
7.71743
7.90302
8.08937
8.27645
8.4642
8.65258
8.84156
9.0311
9.22117
9.41172
9.60272
9.79415
9.98598
10.1782
10.3707
10.5635
10.7566
10.95
11.1436
11.3374
11.5314
11.7255
11.9198
12.1142
12.3087
12.5033
12.698
12.8927
13.0875
13.2823
13.477
13.6718
13.8666
14.0613
14.2559
14.4505
14.645
14.8395
15.0338
15.228
15.4221
15.6161
15.8099
16.0036
16.1971
16.3905
16.5837
16.7767
16.9695
17.1621
17.3545
17.5467
17.7387
17.9304
18.1219
18.3132
18.5043
18.6951
18.8856
19.0759
19.2659
19.4556
19.6451
19.8343
20.0232
20.2118
20.4002
20.5882
20.776
20.9634
21.1505
21.3373
21.5239
21.71
21.8959
22.0814
22.2667
22.4515
22.6361
22.8203
23.0042
23.1878
23.371
23.5538
23.7364
23.9185
24.1003
24.2818
24.4629
24.6436
24.824
25.004
25.1837
25.363
25.5419
25.7204
25.8986
26.0765
26.2539
26.431
26.6076
26.784
26.9599
27.1354
27.3106
27.4854
27.6598
27.8338
28.0074
28.1806
28.3535
28.5259
28.698
28.8697
29.0409
29.2118
29.3823
29.5524
29.7221
29.8914
30.0603
30.2287
30.3968
30.5645
30.7318
30.8987
31.0651
31.2312
31.3968
31.5621
31.7269
31.8914
32.0554
32.219
32.3822
32.545
32.7074
32.8694
33.0309
33.1921
33.3528
33.5131
33.673
33.8325
33.9916
34.1502
34.3085
34.4663
34.6237
34.7806
34.9372
35.0933
35.2491
35.4044
35.5593
35.7137
35.8677
36.0213
36.1745
36.3273
36.4796
36.6315
36.783
36.9341
37.0847
37.2349
37.3847
37.534
37.683
37.8315
37.9795
38.1271
38.2743
38.4211
38.5675
38.7134
38.8589
39.0039
39.1485
39.2927
39.4365
39.5798
39.7227
39.8651
40.0071
40.1487
40.2898
40.4305
40.5708
40.7106
40.85
40.989
41.1275
41.2655
41.4032
41.5403
41.6771
41.8134
41.9492
42.0846
42.2196
42.3541
42.4882
42.6218
42.755
42.8877
43.02
43.1518
43.2832
43.4141
43.5446
43.6746
43.8041
43.9332
44.0618
44.19
44.3177
44.445
44.5718
44.6981
44.824
44.9493
45.0743
45.1987
45.3227
45.4462
45.5692
45.6918
45.8138
45.9354
46.0565
46.1771
46.2972
46.4168
46.5359
46.6546
46.7727
46.8903
47.0074
47.124
47.2401
47.3556
47.4706
47.5851
47.6991
47.8125
47.9254
48.0377
48.1495
48.2607
48.3714
48.4814
48.5909
48.6998
48.8081
48.9157
49.0228
49.1292
49.2349
49.34
49.4445
49.5482
49.6513
49.7536
49.8553
49.9561
50.0562
50.1555
50.254
50.3517
50.4485
50.5445
50.6395
50.7336
50.8267
50.9187
51.0098
51.0997
51.1885
51.2762
51.3626
51.4477
51.5315
51.6139
51.6948
51.7742
51.8521
51.9282
52.0027
52.0753
52.146
52.2148
52.2815
52.3461
52.4084
52.4684
52.526
52.5812
52.6338
52.6838
52.7311
52.7757
52.8176
52.8567
52.893
52.9265
52.9573
52.9854
53.011
53.0339
53.0545
53.0728
53.0889
53.103
53.1152
53.1258
53.1348
53.1425
53.1489
53.1544
53.1589
53.1627
53.1658
53.1684
53.1706
53.1724
53.174
53.1753
53.1765
53.1775
53.1784
53.1792
53.18
53.1807
53.1814
53.1821
53.1827
53.1833
53.1839
53.1845
53.1851
53.1856
53.1861
53.1867
53.1872
53.1877
53.1882
53.1886
53.1891
53.1895
53.1899
53.1904
53.1908
53.1911
53.1915
53.1919
53.1922
53.1926
53.1929
53.1933
53.1936
53.1939
53.1942
53.1945
53.1948
53.195
53.1953
53.1956
53.1958
53.1961
53.1963
53.1965
53.1968
53.197
53.1972
53.1974
53.1976
53.1978
53.198
53.1982
53.1984
53.1986
53.1988
53.199
53.1991
53.1993
53.1995
53.1996
53.1998
53.1999
53.2001
53.2002
53.2004
53.2005
53.2006
53.2008
53.2009
53.201
53.2012
53.2013
53.2014
53.2015
53.2016
53.2017
53.2019
53.202
53.2021
53.2022
53.2023
53.2024
53.2025
53.2025
53.2026
53.2027
53.2028
53.2029
53.203
53.2031
53.2031
53.2032
53.2033
53.2034
53.2034
53.2035
53.2036
53.2037
53.2037
53.2038
53.2038
53.2039
53.2039
53.204
53.2041
53.2041
53.2042
53.2042
53.2043
53.2043
53.2044
53.2044
53.2045
53.2045
53.2045
53.2046
53.2046
53.2047
53.2047
53.2047
53.2048
53.2048
53.2048
53.2049
53.2049
53.2049
53.205
53.205
53.205
53.205
53.2051
53.2051
53.2051
53.2051
53.2052
53.2052
53.2052
53.2052
53.2052
53.2052
53.2052
53.2053
53.2053
53.2053
53.2053
53.2053
53.2053
53.2053
53.2053
53.2053
53.2054
53.2054
53.2054
53.2054
53.2054
53.2054
53.2054
53.2054
53.2054
53.2054
53.2054
53.2054
53.2054
53.2054
53.2054
53.2054
53.2054
53.2054
53.2054
53.2054
53.2054
53.2054
53.2054
53.2054
53.2053
53.2053
53.2053
53.2053
53.2053
53.2053
53.2053
53.2053
53.2053
53.2052
53.2052
53.2052
53.2052
53.2052
53.2052
53.2052
53.2052
53.2051
53.2051
53.2051
53.2051
53.2051
53.205
53.205
53.205
53.205
53.205
53.2049
53.2049
53.2049
53.2049
53.2048
53.2048
53.2048
53.2047
53.2047
53.2047
53.2047
53.2046
53.2046
53.2046
53.2045
53.2045
53.2045
53.2044
53.2044
53.2044
53.2043
53.2043
53.2043
53.2042
53.2042
53.2042
53.2041
53.2041