<?xml version="1.0"?>
<VTKFile type="RectilinearGrid">
<RectilinearGrid WholeExtent="0 3500 0 0 0 0">
<Piece Extent="0 3500 0 0 0 0">
<Coordinates>
<DataArray type="Float32" format="ascii">
0
0.285714
0.571429
0.857143
1.14286
1.42857
1.71429
2
2.28571
2.57143
2.85714
3.14286
3.42857
3.71429
4
4.28571
4.57143
4.85714
5.14286
5.42857
5.71429
6
6.28571
6.57143
6.85714
7.14286
7.42857
7.71429
8
8.28572
8.57143
8.85714
9.14286
9.42857
9.71429
10
10.2857
10.5714
10.8571
11.1429
11.4286
11.7143
12
12.2857
12.5714
12.8571
13.1429
13.4286
13.7143
14
14.2857
14.5714
14.8571
15.1429
15.4286
15.7143
16
16.2857
16.5714
16.8571
17.1429
17.4286
17.7143
18
18.2857
18.5714
18.8571
19.1429
19.4286
19.7143
20
20.2857
20.5714
20.8571
21.1429
21.4286
21.7143
22
22.2857
22.5714
22.8571
23.1429
23.4286
23.7143
24
24.2857
24.5714
24.8571
25.1429
25.4286
25.7143
26
26.2857
26.5714
26.8571
27.1429
27.4286
27.7143
28
28.2857
28.5714
28.8571
29.1429
29.4286
29.7143
30
30.2857
30.5714
30.8571
31.1429
31.4286
31.7143
32
32.2857
32.5714
32.8571
33.1429
33.4286
33.7143
34
34.2857
34.5714
34.8571
35.1429
35.4286
35.7143
36
36.2857
36.5714
36.8571
37.1429
37.4286
37.7143
38
38.2857
38.5714
38.8571
39.1429
39.4286
39.7143
40
40.2857
40.5714
40.8571
41.1429
41.4286
41.7143
42
42.2857
42.5714
42.8571
43.1429
43.4286
43.7143
44
44.2857
44.5714
44.8571
45.1429
45.4286
45.7143
46
46.2857
46.5714
46.8571
47.1429
47.4286
47.7143
48
48.2857
48.5714
48.8571
49.1429
49.4286
49.7143
50
50.2857
50.5714
50.8571
51.1429
51.4286
51.7143
52
52.2857
52.5714
52.8571
53.1429
53.4286
53.7143
54
54.2857
54.5714
54.8571
55.1429
55.4286
55.7143
56
56.2857
56.5714
56.8571
57.1429
57.4286
57.7143
58
58.2857
58.5714
58.8571
59.1429
59.4286
59.7143
60
60.2857
60.5714
60.8571
61.1429
61.4286
61.7143
62
62.2857
62.5714
62.8571
63.1429
63.4286
63.7143
64
64.2857
64.5714
64.8571
65.1429
65.4286
65.7143
66
66.2857
66.5714
66.8571
67.1429
67.4286
67.7143
68
68.2857
68.5714
68.8571
69.1429
69.4286
69.7143
70
70.2857
70.5714
70.8571
71.1429
71.4286
71.7143
72
72.2857
72.5714
72.8571
73.1429
73.4286
73.7143
74
74.2857
74.5714
74.8571
75.1429
75.4286
75.7143
76
76.2857
76.5714
76.8571
77.1429
77.4286
77.7143
78
78.2857
78.5714
78.8571
79.1429
79.4286
79.7143
80
80.2857
80.5714
80.8571
81.1429
81.4286
81.7143
82
82.2857
82.5714
82.8571
83.1429
83.4286
83.7143
84
84.2857
84.5714
84.8571
85.1429
85.4286
85.7143
86
86.2857
86.5714
86.8571
87.1429
87.4286
87.7143
88
88.2857
88.5714
88.8571
89.1429
89.4286
89.7143
90
90.2857
90.5714
90.8571
91.1429
91.4286
91.7143
92
92.2857
92.5714
92.8571
93.1429
93.4286
93.7143
94
94.2857
94.5714
94.8571
95.1429
95.4286
95.7143
96
96.2857
96.5714
96.8571
97.1429
97.4286
97.7143
98
98.2857
98.5714
98.8571
99.1429
99.4286
99.7143
100
100.286
100.571
100.857
101.143
101.429
101.714
102
102.286
102.571
102.857
103.143
103.429
103.714
104
104.286
104.571
104.857
105.143
105.429
105.714
106
106.286
106.571
106.857
107.143
107.429
107.714
108
108.286
108.571
108.857
109.143
109.429
109.714
110
110.286
110.571
110.857
111.143
111.429
111.714
112
112.286
112.571
112.857
113.143
113.429
113.714
114
114.286
114.571
114.857
115.143
115.429
115.714
116
116.286
116.571
116.857
117.143
117.429
117.714
118
118.286
118.571
118.857
119.143
119.429
119.714
120
120.286
120.571
120.857
121.143
121.429
121.714
122
122.286
122.571
122.857
123.143
123.429
123.714
124
124.286
124.571
124.857
125.143
125.429
125.714
126
126.286
126.571
126.857
127.143
127.429
127.714
128
128.286
128.571
128.857
129.143
129.429
129.714
130
130.286
130.571
130.857
131.143
131.429
131.714
132
132.286
132.571
132.857
133.143
133.429
133.714
134
134.286
134.571
134.857
135.143
135.429
135.714
136
136.286
136.571
136.857
137.143
137.429
137.714
138
138.286
138.571
138.857
139.143
139.429
139.714
140
140.286
140.571
140.857
141.143
141.429
141.714
142
142.286
142.571
142.857
143.143
143.429
143.714
144
144.286
144.571
144.857
145.143
145.429
145.714
146
146.286
146.571
146.857
147.143
147.429
147.714
148
148.286
148.571
148.857
149.143
149.429
149.714
150
150.286
150.571
150.857
151.143
151.429
151.714
152
152.286
152.571
152.857
153.143
153.429
153.714
154
154.286
154.571
154.857
155.143
155.429
155.714
156
156.286
156.571
156.857
157.143
157.429
157.714
158
158.286
158.571
158.857
159.143
159.429
159.714
160
160.286
160.571
160.857
161.143
161.429
161.714
162
162.286
162.571
162.857
163.143
163.429
163.714
164
164.286
164.571
164.857
165.143
165.429
165.714
166
166.286
166.571
166.857
167.143
167.429
167.714
168
168.286
168.571
168.857
169.143
169.429
169.714
170
170.286
170.571
170.857
171.143
171.429
171.714
172
172.286
172.571
172.857
173.143
173.429
173.714
174
174.286
174.571
174.857
175.143
175.429
175.714
176
176.286
176.571
176.857
177.143
177.429
177.714
178
178.286
178.571
178.857
179.143
179.429
179.714
180
180.286
180.571
180.857
181.143
181.429
181.714
182
182.286
182.571
182.857
183.143
183.429
183.714
184
184.286
184.571
184.857
185.143
185.429
185.714
186
186.286
186.571
186.857
187.143
187.429
187.714
188
188.286
188.571
188.857
189.143
189.429
189.714
190
190.286
190.571
190.857
191.143
191.429
191.714
192
192.286
192.571
192.857
193.143
193.429
193.714
194
194.286
194.571
194.857
195.143
195.429
195.714
196
196.286
196.571
196.857
197.143
197.429
197.714
198
198.286
198.571
198.857
199.143
199.429
199.714
200
200.286
200.571
200.857
201.143
201.429
201.714
202
202.286
202.571
202.857
203.143
203.429
203.714
204
204.286
204.571
204.857
205.143
205.429
205.714
206
206.286
206.571
206.857
207.143
207.429
207.714
208
208.286
208.571
208.857
209.143
209.429
209.714
210
210.286
210.571
210.857
211.143
211.429
211.714
212
212.286
212.571
212.857
213.143
213.429
213.714
214
214.286
214.571
214.857
215.143
215.429
215.714
216
216.286
216.571
216.857
217.143
217.429
217.714
218
218.286
218.571
218.857
219.143
219.429
219.714
220
220.286
220.571
220.857
221.143
221.429
221.714
222
222.286
222.571
222.857
223.143
223.429
223.714
224
224.286
224.571
224.857
225.143
225.429
225.714
226
226.286
226.571
226.857
227.143
227.429
227.714
228
228.286
228.571
228.857
229.143
229.429
229.714
230
230.286
230.571
230.857
231.143
231.429
231.714
232
232.286
232.571
232.857
233.143
233.429
233.714
234
234.286
234.571
234.857
235.143
235.429
235.714
236
236.286
236.571
236.857
237.143
237.429
237.714
238
238.286
238.571
238.857
239.143
239.429
239.714
240
240.286
240.571
240.857
241.143
241.429
241.714
242
242.286
242.571
242.857
243.143
243.429
243.714
244
244.286
244.571
244.857
245.143
245.429
245.714
246
246.286
246.571
246.857
247.143
247.429
247.714
248
248.286
248.571
248.857
249.143
249.429
249.714
250
250.286
250.571
250.857
251.143
251.429
251.714
252
252.286
252.571
252.857
253.143
253.429
253.714
254
254.286
254.571
254.857
255.143
255.429
255.714
256
256.286
256.571
256.857
257.143
257.429
257.714
258
258.286
258.571
258.857
259.143
259.429
259.714
260
260.286
260.571
260.857
261.143
261.429
261.714
262
262.286
262.571
262.857
263.143
263.429
263.714
264
264.286
264.571
264.857
265.143
265.429
265.714
266
266.286
266.571
266.857
267.143
267.429
267.714
268
268.286
268.571
268.857
269.143
269.429
269.714
270
270.286
270.571
270.857
271.143
271.429
271.714
272
272.286
272.571
272.857
273.143
273.429
273.714
274
274.286
274.571
274.857
275.143
275.429
275.714
276
276.286
276.571
276.857
277.143
277.429
277.714
278
278.286
278.571
278.857
279.143
279.429
279.714
280
280.286
280.571
280.857
281.143
281.429
281.714
282
282.286
282.571
282.857
283.143
283.429
283.714
284
284.286
284.571
284.857
285.143
285.429
285.714
286
286.286
286.571
286.857
287.143
287.429
287.714
288
288.286
288.571
288.857
289.143
289.429
289.714
290
290.286
290.571
290.857
291.143
291.429
291.714
292
292.286
292.571
292.857
293.143
293.429
293.714
294
294.286
294.571
294.857
295.143
295.429
295.714
296
296.286
296.571
296.857
297.143
297.429
297.714
298
298.286
298.571
298.857
299.143
299.429
299.714
300
300.286
300.571
300.857
301.143
301.429
301.714
302
302.286
302.571
302.857
303.143
303.429
303.714
304
304.286
304.571
304.857
305.143
305.429
305.714
306
306.286
306.571
306.857
307.143
307.429
307.714
308
308.286
308.571
308.857
309.143
309.429
309.714
310
310.286
310.571
310.857
311.143
311.429
311.714
312
312.286
312.571
312.857
313.143
313.429
313.714
314
314.286
314.571
314.857
315.143
315.429
315.714
316
316.286
316.571
316.857
317.143
317.429
317.714
318
318.286
318.571
318.857
319.143
319.429
319.714
320
320.286
320.571
320.857
321.143
321.429
321.714
322
322.286
322.571
322.857
323.143
323.429
323.714
324
324.286
324.571
324.857
325.143
325.429
325.714
326
326.286
326.571
326.857
327.143
327.429
327.714
328
328.286
328.571
328.857
329.143
329.429
329.714
330
330.286
330.571
330.857
331.143
331.429
331.714
332
332.286
332.571
332.857
333.143
333.429
333.714
334
334.286
334.571
334.857
335.143
335.429
335.714
336
336.286
336.571
336.857
337.143
337.429
337.714
338
338.286
338.571
338.857
339.143
339.429
339.714
340
340.286
340.571
340.857
341.143
341.429
341.714
342
342.286
342.571
342.857
343.143
343.429
343.714
344
344.286
344.571
344.857
345.143
345.429
345.714
346
346.286
346.571
346.857
347.143
347.429
347.714
348
348.286
348.571
348.857
349.143
349.429
349.714
350
350.286
350.571
350.857
351.143
351.429
351.714
352
352.286
352.571
352.857
353.143
353.429
353.714
354
354.286
354.571
354.857
355.143
355.429
355.714
356
356.286
356.571
356.857
357.143
357.429
357.714
358
358.286
358.571
358.857
359.143
359.429
359.714
360
360.286
360.571
360.857
361.143
361.429
361.714
362
362.286
362.571
362.857
363.143
363.429
363.714
364
364.286
364.571
364.857
365.143
365.429
365.714
366
366.286
366.571
366.857
367.143
367.429
367.714
368
368.286
368.571
368.857
369.143
369.429
369.714
370
370.286
370.571
370.857
371.143
371.429
371.714
372
372.286
372.571
372.857
373.143
373.429
373.714
374
374.286
374.571
374.857
375.143
375.429
375.714
376
376.286
376.571
376.857
377.143
377.429
377.714
378
378.286
378.571
378.857
[...]
<CellData>
<DataArray Name="h" type="Float32" format="ascii">
14
14
14
14
14
14
14
14
14
14
14
14
14
14
14
14
14
14
14
14
14
14
14
14
14
14
14
14
14
14
14
14
14
14
14
14
14
14
14
14
14
14
14
14
14
14
14
14
14
14
14
14
14
14
14
14
14
14
14
14
14
14
14
14
14
14
14
14
14
14
14
14
14
14
14
14
14
14
13.9999
13.9999
13.9999
13.9999
13.9999
13.9999
13.9999
13.9999
13.9999
13.9999
13.9999
13.9999
13.9999
13.9999
13.9999
13.9999
13.9999
13.9999
13.9999
13.9999
13.9999
13.9999
13.9999
13.9999
13.9998
13.9998
13.9998
13.9998
13.9997
13.9997
13.9997
13.9996
13.9995
13.9995
13.9994
13.9993
13.9992
13.999
13.9989
13.9987
13.9985
13.9983
13.998
13.9977
13.9973
13.997
13.9965
13.996
13.9955
13.9949
13.9942
13.9934
13.9925
13.9916
13.9906
13.9894
13.9881
13.9868
13.9852
13.9836
13.9818
13.9798
13.9777
13.9754
13.973
13.9703
13.9675
13.9644
13.9612
13.9577
13.954
13.9501
13.946
13.9416
13.937
13.9321
13.927
13.9216
13.916
13.9101
13.904
13.8976
13.8909
13.884
13.8768
13.8694
13.8617
13.8538
13.8456
13.8371
13.8285
13.8195
13.8104
13.801
13.7913
13.7815
13.7714
13.7611
13.7505
13.7398
13.7289
13.7177
13.7064
13.6949
13.6832
13.6713
13.6592
13.647
13.6346
13.6221
13.6093
13.5965
13.5835
13.5703
13.557
13.5436
13.53
13.5163
13.5025
13.4886
13.4745
13.4604
13.4461
13.4317
13.4173
13.4027
13.388
13.3733
13.3584
13.3435
13.3285
13.3134
13.2982
13.2829
13.2676
13.2522
13.2367
13.2212
13.2056
13.1899
13.1742
13.1584
13.1425
13.1266
13.1106
13.0946
13.0786
13.0625
13.0463
13.0301
13.0138
12.9975
12.9812
12.9648
12.9483
12.9319
12.9154
12.8988
12.8822
12.8656
12.8489
12.8322
12.8155
12.7987
12.7819
12.7651
12.7483
12.7314
12.7145
12.6975
12.6806
12.6636
12.6465
12.6295
12.6124
12.5953
12.5782
12.561
12.5438
12.5266
12.5094
12.4922
12.4749
12.4576
12.4403
12.4229
12.4056
12.3882
12.3708
12.3534
12.336
12.3185
12.3011
12.2836
12.2661
12.2485
12.231
12.2134
12.1958
12.1782
12.1606
12.143
12.1254
12.1077
12.09
12.0723
12.0546
12.0369
12.0191
12.0014
11.9836
11.9658
11.948
11.9302
11.9124
11.8945
11.8767
11.8588
11.8409
11.823
11.8051
11.7872
11.7692
11.7513
11.7333
11.7153
11.6973
11.6793
11.6613
11.6432
11.6252
11.6071
11.589
11.5709
11.5528
11.5347
11.5166
11.4985
11.4803
11.4621
11.444
11.4258
11.4076
11.3893
11.3711
11.3529
11.3346
11.3164
11.2981
11.2798
11.2615
11.2432
11.2248
11.2065
11.1881
11.1698
11.1514
11.133
11.1146
11.0962
11.0778
11.0593
11.0409
11.0224
11.0039
10.9854
10.9669
10.9484
10.9299
10.9114
10.8928
10.8742
10.8557
10.8371
10.8185
10.7999
10.7813
10.7626
10.744
10.7253
10.7066
10.6879
10.6692
10.6505
10.6318
10.6131
10.5943
10.5756
10.5568
10.538
10.5192
10.5004
10.4815
10.4627
10.4438
10.425
10.4061
10.3872
10.3683
10.3494
10.3304
10.3115
10.2925
10.2736
10.2546
10.2356
10.2166
10.1975
10.1785
10.1594
10.1404
10.1213
10.1022
10.0831
10.064
10.0448
10.0257
10.0065
9.98734
9.96814
9.94893
9.92971
9.91047
9.89122
9.87195
9.85267
9.83338
9.81407
9.79474
9.7754
9.75605
9.73668
9.7173
9.6979
9.67848
9.65905
9.63961
9.62015
9.60067
9.58118
9.56168
9.54215
9.52262
9.50306
9.48349
9.46391
9.44431
9.42469
9.40506
9.38541
9.36575
9.34607
9.32637
9.30666
9.28693
9.26719
9.24742
9.22765
9.20785
9.18804
9.16821
9.14837
9.12851
9.10863
9.08873
9.06882
9.0489
9.02895
9.00899
8.98901
8.96902
8.94901
8.92898
8.90893
8.88887
8.86879
8.8487
8.82859
8.80846
8.78831
8.76815
8.74797
8.72778
8.70756
8.68734
8.66709
8.64683
8.62655
8.60626
8.58595
8.56562
8.54528
8.52493
8.50456
8.48417
8.46377
8.44335
8.42292
8.40248
8.38202
8.36155
8.34106
8.32056
8.30005
8.27953
8.259
8.23845
8.21789
8.19733
8.17675
8.15617
8.13558
8.11498
8.09437
8.07376
8.05314
8.03252
8.0119
7.99127
7.97065
7.95002
7.9294
7.90878
7.88817
7.86757
7.84697
7.82639
7.80581
7.78526
7.76472
7.7442
7.72371
7.70324
7.6828
7.66239
7.64202
7.6217
7.60141
7.58118
7.561
7.54088
7.52083
7.50085
7.48094
7.46112
7.4414
7.42177
7.40225
7.38285
7.36358
7.34445
7.32546
7.30664
7.28799
7.26953
7.25127
7.23323
7.21542
7.19786
7.18056
7.16356
7.14685
7.13047
7.11444
7.09877
7.08349
7.06862
7.05419
7.0402
7.0267
7.01369
7.00119
6.98924
6.97783
6.96699
6.95673
6.94706
6.93799
6.92952
6.92165
6.91437
6.90768
6.90156
6.896
6.89098
6.88647
6.88245
6.87888
6.87573
6.87298
6.87058
6.86851
6.86673
6.8652
6.86389
6.86278
6.86184
6.86104
6.86036
6.85978
6.85928
6.85885
6.85848
6.85815
6.85785
6.85758
6.85733
6.85711
6.85689
6.85669
6.85649
6.85631
6.85613
6.85595
6.85578
6.85562
6.85546
6.8553
6.85515
6.85501
6.85486
6.85472
6.85458
6.85445
6.85432
6.85419
6.85407
6.85395
6.85383
6.85372
6.8536
6.8535
6.85339
6.85329
6.85319
6.85309
6.85299
6.8529
6.85281
6.85272
6.85263
6.85255
6.85246
6.85238
6.8523
6.85222
6.85215
6.85207
6.85199
6.85192
6.85185
6.85178
6.85171
6.85164
6.85158
6.85151
6.85145
6.85138
6.85132
6.85126
6.8512
6.85114
6.85109
6.85103
6.85097
6.85092
6.85086
6.85081
6.85076
6.85071
6.85066
6.85061
6.85056
6.85051
6.85046
6.85042
6.85037
6.85033
6.85028
6.85024
6.85019
6.85015
6.85011
6.85007
6.85003
6.84999
6.84995
6.84991
6.84987
6.84983
6.84979
6.84975
6.84971
6.84968
6.84964
6.84961
6.84957
6.84954
6.8495
6.84947
6.84944
6.8494
6.84937
6.84934
6.84931
6.84927
6.84924
6.84921
6.84918
6.84915
6.84912
6.84909
6.84906
6.84903
6.84901
6.84898
6.84895
6.84892
6.8489
6.84887
6.84884
6.84881
6.84879
6.84876
6.84873
6.8487
6.84868
6.84865
6.84863
6.84861
6.84858
6.84856
6.84854
6.84851
6.84849
6.84847
6.84845
6.84842
6.8484
6.84838
6.84836
6.84834
6.84831
6.84829
6.84827
6.84825
6.84823
6.8482
6.84818
6.84816
6.84814
6.84812
6.8481
6.84808
6.84806
6.84804
6.84802
6.848
6.84798
6.84797
6.84795
6.84793
6.84791
6.8479
6.84788
6.84786
6.84784
6.84783
6.84781
6.84779
6.84777
6.84776
6.84774
6.84772
6.8477
6.84769
6.84767
6.84765
6.84764
6.84762
6.8476
6.84759
6.84757
6.84755
6.84754
6.84752
6.8475
6.84749
6.84747
6.84745
6.84744
6.84742
6.84741
6.84739
6.84738
6.84736
6.84735
6.84733
6.84732
6.8473
6.84729
6.84728
6.84726
6.84725
6.84724
6.84723
6.84721
6.8472
6.84718
6.84717
6.84716
6.84715
6.84713
6.84712
6.84711
6.84709
6.84708
6.84707
6.84705
6.84704
6.84703
6.84702
6.847
6.84699
6.84698
6.84696
6.84695
6.84694
6.84693
6.84691
6.8469
6.84689
6.84688
6.84687
6.84685
6.84684
6.84683
6.84681
6.8468
6.84679
6.84678
6.84677
6.84675
6.84674
6.84673
6.84672
6.84671
6.84669
6.84668
6.84667
6.84666
6.84665
6.84664
6.84663
6.84662
6.8466
6.84659
6.84658
6.84657
6.84656
6.84655
6.84654
6.84653
6.84652
6.84651
6.8465
6.84649
6.84648
6.84647
6.84646
6.84645
6.84644
6.84643
6.84642
6.84641
6.8464
6.84639
6.84638
6.84637
6.84636
6.84635
6.84634
6.84633
6.84632
6.84631
6.8463
6.84629
6.84628
6.84627
6.84626
6.84625
6.84624
6.84623
6.84622
6.84621
6.8462
6.84619
6.84618
6.84617
6.84616
6.84615
6.84614
6.84613
6.84613
6.84612
6.84611
6.8461
6.84609
6.84608
6.84607
6.84606
6.84605
6.84604
6.84603
6.84602
6.84601
6.846
6.846
6.84599
6.84598
6.84597
6.84596
6.84595
6.84594
6.84593
6.84592
6.84591
6.8459
6.84589
6.84589
6.84588
6.84587
6.84586
6.84585
6.84584
6.84583
6.84582
6.84581
6.8458
6.8458
6.84579
6.84578
6.84577
6.84576
6.84575
6.84575
6.84574
6.84573
6.84572
6.84571
6.8457
6.8457
6.84569
6.84568
6.84567
6.84566
6.84565
6.84564
6.84564
6.84563
6.84562
6.84561
6.8456
6.84559
6.84559
6.84558
6.84557
6.84556
6.84555
6.84554
6.84554
6.84553
6.84552
6.84551
6.8455
6.84549
6.84548
6.84548
6.84547
6.84546
6.84545
6.84544
6.84543
6.84542
6.84542
6.84541
6.8454
6.84539
6.84538
6.84537
6.84537
6.84536
6.84535
6.84534
6.84533
6.84533
6.84532
6.84531
6.8453
6.84529
6.84528
6.84528
6.84527
6.84526
6.84525
6.84524
6.84523
6.84523
6.84522
6.84521
6.8452
6.84519
6.84518
6.84517
6.84517
6.84516
6.84515
6.84514
6.84513
6.84513
6.84512
6.84511
6.8451
6.84509
6.84509
6.84508
6.84507
6.84506
6.84505
6.84505
6.84504
6.84503
6.84502
6.84501
6.84501
6.845
6.84499
6.84498
6.84497
6.84496
6.84496
6.84495
6.84494
6.84493
6.84492
6.84491
6.8449
6.8449
6.84489
6.84488
6.84487
6.84486
6.84485
6.84485
6.84484
6.84483
6.84482
6.84481
6.84481
6.8448
6.84479
6.84478
6.84477
6.84476
6.84476
6.84475
6.84474
6.84473
6.84472
6.84471
6.8447
6.8447
6.84469
6.84468
6.84467
6.84466
6.84465
6.84464
6.84464
6.84463
6.84462
6.84461
6.8446
6.8446
6.84459
6.84458
6.84457
6.84456
6.84455
6.84454
6.84454
6.84453
6.84452
6.84451
6.8445
6.84449
6.84448
6.84447
6.84446
6.84445
6.84444
6.84444
6.84443
6.84442
6.84441
6.8444
6.84439
6.84438
6.84437
6.84436
6.84436
6.84435
6.84434
6.84433
6.84432
6.84431
6.8443
6.84429
6.84428
6.84427
6.84426
6.84426
6.84425
6.84424
6.84423
6.84422
6.84421
6.8442
6.84419
6.84418
6.84417
6.84416
6.84415
6.84414
6.84414
6.84413
6.84412
6.84411
6.8441
6.84409
6.84408
6.84407
6.84406
6.84405
6.84404
6.84403
6.84402
6.84401
6.844
6.84399
6.84398
6.84397
6.84396
6.84395
6.84394
6.84393
6.84392
6.84391
6.8439
6.84389
6.84388
6.84387
6.84386
6.84385
6.84384
6.84383
6.84382
6.84381
6.8438
6.84379
6.84378
6.84377
6.84376
6.84375
6.84373
6.84372
6.84371
6.8437
6.84369
6.84368
6.84367
6.84366
6.84365
6.84364
6.84363
6.84362
6.84361
6.8436
6.84359
6.84357
6.84356
6.84355
6.84354
6.84352
6.84351
6.8435
6.84349
6.84348
6.84347
6.84346
6.84345
6.84344
6.84343
6.84341
6.8434
6.84339
6.84338
6.84337
6.84335
6.84334
6.84333
6.84332
6.84331
6.84329
6.84328
6.84327
6.84325
6.84324
6.84323
6.84322
6.84321
6.84319
6.84318
6.84317
6.84316
6.84314
6.84313
6.84312
6.8431
6.84309
6.84308
6.84307
6.84306
6.84304
6.84303
6.84302
6.843
6.84299
6.84298
6.84296
6.84295
6.84293
6.84292
6.84291
6.84289
6.84288
6.84287
6.84285
6.84284
6.84282
6.8428
6.84279
6.84277
6.84276
6.84275
6.84273
6.84272
6.84271
6.84269
6.84268
6.84266
6.84265
6.84263
6.84261
6.8426
6.84258
6.84257
6.84256
6.84255
6.84253
6.84252
6.8425
6.84247
6.84245
6.84243
6.84241
6.8424
6.84238
6.84237
6.84236
6.84235
6.84233
6.84232
6.84229
6.84227
6.84225
6.84223
6.84222
6.8422
6.84219
6.84218
6.84216
6.84215
6.84213
6.84211
6.84209
6.84206
6.84204
6.84201
6.84199
6.84198
6.84197
6.84196
6.84195
6.84193
6.84191
6.84188
6.84185
6.84181
6.84179
6.84177
6.84176
6.84175
6.84174
6.84173
6.84171
6.84168
6.84165
6.8416
6.84152
6.84135
6.84097
6.84006
6.83771
6.83166
6.81601
6.77547
6.67119
6.40662
5.78059
4.60541
3.47847
3.07982
3.01069
3.00137
3.00017
3.00002
3
3
3
3
3
3
3
3
3
3
3
3
3
3
3
3
3
3
3
3
3
3
3
3
3
3
3
3
3
3
3
3
3
3
3
3
3
3
3
3
3
3
3
3
3
3
3
3
3
3
3
3
3
3
3
3
3
3
3
3
3
3
3
3
3
3
3
3
3
3
3
3
3
3
3
3
3
3
3
3
3
3
3
3
3
3
3
3
3
3
3
3
3
3
3
3
3
3
3
3
3
3
3
3
3
3
3
3
3
3
3
3
3
3
3
3
3
3
3
3
3
3
3
3
3
3
3
3
3
3
3
3
3
3
3
3
3
3
3
3
3
3
3
3
3
3
3
3
3
3
3
3
3
3
3
3
3
3
3
3
3
3
3
3
3
3
3
3
3
3
3
3
3
3
3
3
3
3
3
3
3
3
3
3
3
3
3
3
3
3
3
3
3
3
3
3
3
3
3
3
3
3
3
3
3
3
3
3
3
3
3
3
3
3
3
3
3
3
3
3
3
3
3
3
3
3
3
3
3
3
3
3
3
3
3
3
3
3
3
3
3
3
3
3
3
3
3
3
3
3
3
3
3
3
3
3
3
3
3
3
3
3
3
3
3
3
3
3
3
3
3
3
3
3
3
3
3
3
3
3
3
3
3
3
3
3
3
3
3
3
3
3
3
3
3
3
3
3
3
3
3
3
3
3
3
3
3
3
3
3
3
3
3
3
3
3
3
3
3
3
3
3
3
3
3
3
3
3
3
3
3
3
3
3
3
3
3
3
3
3
3
3
3
3
3
3
3
3
3
3
3
3
3
3
3
3
3
3
3
3
3
3
3
3
3
3
3
3
3
3
3
3
3
3
3
3
3
3
3
3
3
3
3
3
3
3
3
3
3
3
3
3
3
3
3
3
3
3
3
3
3
3
3
3
3
3
3
3
3
3
3
3
3
3
3
3
3
3
3
3
3
3
3
3
3
3
3
3
3
3
3
3
3
3
3
3
3
3
3
3
3
3
3
3
3
3
3
3
3
3
3
3
3
3
3
3
3
3
3
3
3
3
3
3
3
3
3
3
3
3
3
3
3
3
3
3
3
3
3
3
3
3
3
3
3
3
3
3
3
3
3
3
3
3
3
3
3
3
3
3
3
3
3
3
3
3
3
3
3
3
3
3
3
3
3
3
3
3
3
3
3
3
3
3
3
3
3
3
3
3
3
3
3
3
3
3
3
3
3
3
3
3
3
3
3
3
3
3
3
3
3
3
3
3
3
3
3
3
3
3
3
3
3
3
3
3
3
3
3
3
3
3
3
3
3
3
3
3
3
3
3
3
3
3
3
3
3
3
3
3
3
3
3
3
3
3
3
3
3
3
3
3
3
3
3
3
3
3
3
3
3
3
3
3
3
3
3
3
3
3
3
3
3
3
3
3
3
3
3
3
3
3
3
3
3
3
3
3
3
3
3
3
3
3
3
3
3
3
3
3
3
3
3
3
3
3
3
3
3
3
3
3
3
3
3
3
3
3
3
3
3
3
3
3
3
3
3
3
3
3
3
3
3
3
3
3
3
3
3
3
3
3
3
3
3
3
3
3
3
3
3
3
3
3
3
3
3
3
3
3
3
3
3
3
3
3
3
3
3
3
3
3
3
3
3
3
3
3
3
3
3
3
3
3
3
3
3
3
3
3
3
3
3
3
3
3
3
3
3
3
3
3
3
3
3
3
3
3
3
3
3
3
3
3
3
3
3
3
3
3
3
3
3
3
3
3
3
3
3
3
3
3
3
3
3
3
3
3
3
3
3
3
3
3
3
3
3
3
3
3
3
3
3
3
3
3
3
3
3
3
3
3
3
3
3
3
3
3
3
3
3
3
3
3
3
3
3
3
3
3
3
3
3
3
3
3
3
3
3
3
3
3
3
3
3
3
3
3
3
3
3
3
3
3
3
3
3
3
3
3
3
3
3
3
3
3
3
3
3
3
3
3
3
3
3
3
3
3
3
3
3
3
3
3
3
3
3
3
3
3
3
3
3
3
3
3
3
3
3
3
3
3
3
3
3
3
3
3
3
3
3
3
3
3
3
3
3
3
3
3
3
3
3
3
3
3
3
3
3
3
3
3
3
3
3
3
3
3
3
3
3
3
3
3
3
3
3
3
3
3
3
3
3
3
3
3
3
3
3
3
3
3
3
3
3
3
3
3
3
3
3
3
3
3
3
3
3
3
3
3
3
3
3
3
3
3
3
3
3
3
3
3
3
3
3
3
3
3
3
3
3
3
3
3
3
3
3
3
3
3
3
3
3
3
3
3
3
3
3
3
3
3
3
3
3
3
3
3
3
3
3
3
3
3
3
3
3
3
3
3
3
3
3
3
3
3
3
3
3
3
3
3
3
3
3
3
3
3
3
3
3
3
3
3
3
3
3
3
3
3
3
3
3
3
3
3
3
3
3
3
3
3
3
3
3
3
3
3
3
3
3
3
3
3
3
3
3
3
3
3
3
3
3
3
3
3
3
3
3
3
3
3
3
3
3
3
3
3
3
3
3
3
3
3
3
3
3
3
3
3
3
3
3
3
3
3
3
3
3
3
3
3
3
3
3
3
3
3
3
3
3
3
3
3
3
3
3
3
3
3
3
3
3
3
3
3
3
3
3
3
3
3
3
3
3
3
3
3
3
3
3
3
3
3
3
3
3
3
3
3
3
3
3
3
3
3
3
3
3
3
3
3
3
3
3
3
3
3
3
3
3
3
3
3
3
3
3
3
3
3
3
3
3
3
3
3
3
3
3
3
3
3
3
3
3
3
3
3
3
3
3
3
3
3
3
3
3
3
3
3
3
3
3
3
3
3
3
3
3
3
3
3
3
3
3
3
3
3
3
3
3
3
3
3
3
3
3
3
3
3
3
3
3
3
3
3
3
3
3
3
3
3
3
3
3
3
3
3
3
3
3
3
3
3
3
3
3
3
3
3
3
3
3
3
3
3
3
3
3
3
3
3
3
3
3
3
3
3
3
3
3
3
3
3
3
3
3
3
3
3
3
3
3
3
3
3
3
3
3
3
3
3
3
3
3
3
3
3
3
3
3
3
3
3
3
3
3
3
3
3
3
3
3
3
3
3
3
3
3
3
3
3
3
3
3
3
3
3
3
3
3
3
3
3
3
3
3
3
3
3
3
3
3
3
3
3
3
3
3
3
3
3
3
3
3
3
3
3
3
3
3
3
3
3
3
3
3
3
3
3
3
3
3
3
3
3
3
3
3
3
3
3
3
3
3
3
3
3
3
3
3
3
3
3
3
3
3
3
3
3
3
3
3
3
3
3
3
3
3
3
3
3
3
3
3
3
3
3
3
3
3
3
3
3
3
3
3
3
3
3
3
3
3
3
3
3
3
3
3
3
3
3
3
3
3
3
3
3
3
3
3
3
3
3
3
3
3
3
3
3
3
3
3
3
3
3
3
3
3
3
3
3
3
3
3
3
3
3
3
3
3
3
3
3
3
3
3
3
3
3
3
3
3
3
3
3
3
3
3
3
3
3
3
3
3
3
3
3
3
3
3
3
3
3
3
3
3
3
3
3
3
3
3
3
3
3
3
3
3
3
3
3
3
3
3
3
3
3
3
3
3
3
3
3
3
3
3
3
3
3
3
3
3
3
3
3
3
3
3
3
3
3
3
3
3
3
3
3
3
3
3
3
3
3
3
3
3
3
3
3
3
3
3
3
3
3
3
3
3
3
3
3
3
3
3
3
3
3
3
3
3
3
3
3
3
3
3
3
3
3
3
3
3
3
3
3
3
3
3
3
3
3
3
3
3
3
3
3
3
3
3
3
3
3
3
3
3
3
3
3
3
3
3
3
3
3
3
3
3
3
3
3
3
3
3
3
3
3
3
3
3
3
3
3
3
3
3
3
3
3
3
3
3
3
3
3
3
3
3
3
3
3
3
3
3
3
3
3
3
3
3
3
3
3
3
3
3
3
3
3
3
3
3
3
3
3
3
3
3
3
3
3
3
3
3
3
3
3
3
3
3
3
3
3
3
3
3
3
3
3
3
3
3
3
3
3
3
3
3
3
3
3
3
3
3
3
3
3
3
3
3
3
3
3
3
3
3
3
3
3
3
3
3
3
3
3
3
3
3
3
3
3
3
3
3
3
3
3
3
3
3
3
3
3
3
3
3
3
3
3
3
3
3
3
3
3
3
3
3
3
3
3
3
3
3
3
3
3
3
3
3
3
3
3
3
3
3
3
3
3
3
3
3
3
3
3
3
3
3
3
3
3
3
3
3
3
3
3
3
3
3
3
3
3
3
3
3
3
3
3
3
3
3
3
3
3
3
3
3
3
3
3
3
3
3
3
3
3
3
3
3
3
3
3
3
3
3
3
3
3
3
3
3
3
3
3
3
3
3
3
3
3
3
3
3
3
3
3
3
3
3
3
3
3
3
3
3
3
3
3
3
3
3
3
3
3
3
3
3
3
3
3
3
3
3
3
3
3
3
3
3
3
3
3
3
3
3
3
3
3
3
3
3
3
3
3
3
3
3
3
3
3
3
3
3
3
3
3
3
3
3
3
3
3
3
3
3
3
3
3
3
3
3
3
3
3
3
3
3
3
3
3
3
3
3
3
3
3
3
3
3
3
3
3
3
3
3
3
3
3
3
3
3
3
3
3
3
3
3
3
3
3
3
3
3
3
3
3
3
3
3
3
3
3
3
3
3
3
3
3
3
3
3
3
3
3
3
3
3
3
3
3
3
3
3
3
3
3
3
3
3
3
3
3
3
3
3
3
3
3
3
3
3
3
3
3
3
3
3
3
3
3
3
3
3
3
3
3
3
3
3
3
3
3
3
3
3
3
3
3
3
3
3
3
3
3
3
3
3
3
3
3
3
3
3
3
3
3
3
3
3
3
3
3
3
3
3
3
3
3
3
3
3
3
3
</DataArray>
<DataArray Name="hu" type="Float32" format="ascii">
0
0
0
0
0
0
0
0
0
0
0
0
0
0
0
0
0
0
0
2.8026e-45
2.94273e-44
2.77457e-43
2.57699e-42
2.38585e-41
2.20908e-40
2.04311e-39
1.88504e-38
1.73292e-37
1.58585e-36
1.44388e-35
1.30777e-34
1.1787e-33
1.05795e-32
9.46766e-32
8.46135e-31
7.56816e-30
6.79312e-29
6.13836e-28
5.60176e-27
5.17523e-26
4.84334e-25
4.58385e-24
4.37057e-23
4.17824e-22
3.98716e-21
3.78603e-20
3.57281e-19
3.35476e-18
3.14776e-17
2.97149e-16
2.83743e-15
2.73825e-14
2.65194e-13
2.55011e-12
2.40459e-11
2.1965e-10
1.97842e-09
1.7813e-08
1.48119e-07
1.28439e-06
9.31042e-06
2.77046e-05
4.92131e-05
7.34847e-05
9.99762e-05
0.000127138
0.000155136
0.000183332
0.000215657
0.000250905
0.000280549
0.000308776
0.000340174
0.000372064
0.000402903
0.00043001
0.000458046
0.000487683
0.000517569
0.000548391
0.000580699
0.000610048
0.000636364
0.000665432
0.000697076
0.00072907
0.000758471
0.000785824
0.000815221
0.000846425
0.000877805
0.000906411
0.000934782
0.000966359
0.00100051
0.00103994
0.00108231
0.00113628
0.00121205
0.00130615
0.00141777
0.00155734
0.00173162
0.00194371
0.00219981
0.00251497
0.00289373
0.0033391
0.00387185
0.00450573
0.00524719
0.00610646
0.00711131
0.00828248
0.0096412
0.0112119
0.0130221
0.015106
0.0174906
0.0202188
0.0233396
0.0268911
0.0309147
0.0354679
0.0406015
0.046374
0.0528532
0.0600999
0.0681847
0.0771811
0.0871698
0.0982297
0.11044
0.123895
0.138683
0.154894
0.17262
0.191953
0.212992
0.235829
0.260559
0.287268
0.316053
0.347
0.380195
0.415722
0.45366
0.494084
0.537066
0.582678
0.630976
0.682011
0.735828
0.792473
0.851991
0.914409
0.979744
1.04801
1.11923
1.19339
1.2705
1.35055
1.43353
1.51943
1.6082
1.69982
1.79427
1.8915
1.99147
2.09413
2.19945
2.30736
2.41781
2.53075
2.64612
2.76386
2.8839
3.00618
3.13066
3.25725
3.3859
3.51653
3.6491
3.78353
3.91977
4.05775
4.19742
4.3387
4.48154
4.62589
4.77168
4.91887
5.06739
5.2172
5.36824
5.52045
5.67379
5.82821
5.98366
6.1401
6.29748
6.45577
6.61492
6.77488
6.93563
7.09712
7.25931
7.42216
7.58565
7.74974
7.91441
8.07962
8.24534
8.41155
8.57821
8.7453
8.91279
9.08066
9.24888
9.41744
9.5863
9.75546
9.92487
10.0945
10.2644
10.4345
10.6048
10.7753
10.946
11.1167
11.2876
11.4586
11.6298
11.801
11.9722
12.1436
12.3149
12.4863
12.6578
12.8292
13.0007
13.1721
13.3435
13.5149
13.6863
13.8576
14.0289
14.2
14.3712
14.5422
14.7132
14.8841
15.0548
15.2255
15.3961
15.5665
15.7368
15.907
16.077
16.2469
16.4166
16.5862
16.7557
16.9249
17.094
17.263
17.4317
17.6003
17.7687
17.9369
18.1049
18.2727
18.4404
18.6078
18.775
18.942
19.1087
19.2753
19.4417
19.6078
19.7737
19.9394
20.1048
20.27
20.435
20.5998
20.7643
20.9285
21.0925
21.2563
21.4198
21.5831
21.7461
21.9089
22.0714
22.2336
22.3956
22.5574
22.7188
22.88
23.0409
23.2016
23.362
23.5221
23.682
23.8415
24.0008
24.1599
24.3186
24.4771
24.6353
24.7932
24.9508
25.1081
25.2652
25.422
25.5784
25.7346
25.8905
26.0462
26.2015
26.3565
26.5112
26.6657
26.8198
26.9737
27.1273
27.2805
27.4335
27.5862
27.7385
27.8906
28.0424
28.1938
28.345
28.4959
28.6464
28.7967
28.9466
29.0963
29.2456
29.3947
29.5434
29.6918
29.8399
29.9877
30.1352
30.2824
30.4293
30.5758
30.7221
30.868
31.0137
31.159
31.304
31.4487
31.5931
31.7371
31.8809
32.0243
32.1674
32.3102
32.4527
32.5949
32.7368
32.8783
33.0195
33.1604
33.301
33.4413
33.5812
33.7209
33.8602
33.9992
34.1379
34.2762
34.4142
34.552
34.6893
34.8264
34.9632
35.0996
35.2357
35.3715
35.5069
35.6421
35.7769
35.9114
36.0455
36.1793
36.3129
36.4461
36.5789
36.7115
36.8437
36.9756
37.1071
37.2384
37.3693
37.4999
37.6301
37.76
37.8897
38.0189
38.1479
38.2765
38.4048
38.5327
38.6604
38.7877
38.9146
39.0413
39.1676
39.2935
39.4192
39.5445
39.6695
39.7941
39.9185
40.0424
40.1661
40.2894
40.4124
40.5351
40.6574
40.7794
40.901
41.0224
41.1433
41.264
41.3843
41.5043
41.6239
41.7432
41.8622
41.9808
42.0991
42.2171
42.3347
42.452
42.5689
42.6855
42.8017
42.9176
43.0332
43.1484
43.2633
43.3778
43.492
43.6059
43.7194
43.8325
43.9454
44.0578
44.1699
44.2817
44.3931
44.5041
44.6148
44.7252
44.8352
44.9449
45.0542
45.1631
45.2717
45.3799
45.4878
45.5953
45.7024
45.8092
45.9156
46.0217
46.1273
46.2327
46.3376
46.4422
46.5464
46.6502
46.7536
46.8567
46.9594
47.0616
47.1636
47.2651
47.3662
47.4669
47.5672
47.6672
47.7667
47.8659
47.9646
48.0629
48.1608
48.2582
48.3553
48.4519
48.548
48.6438
48.7391
48.8339
48.9283
49.0222
49.1156
49.2086
49.3011
49.3931
49.4845
49.5755
49.666
49.7559
49.8453
49.9341
50.0224
50.1101
50.1971
50.2836
50.3695
50.4547
50.5393
50.6232
50.7064
50.7888
50.8706
50.9515
51.0317
51.1111
51.1896
51.2672
51.3439
51.4197
51.4944
51.5682
51.6409
51.7124
51.7828
51.852
51.9199
51.9866
52.0518
52.1156
52.178
52.2387
52.2979
52.3554
52.4112
52.4651
52.5172
52.5674
52.6155
52.6617
52.7057
52.7476
52.7873
52.8248
52.8601
52.8932
52.924
52.9526
52.979
53.0032
53.0254
53.0455
53.0637
53.08
53.0945
53.1074
53.1188
53.1287
53.1374
53.1448
53.1513
53.1568
53.1615
53.1655
53.1689
53.1717
53.1741
53.1762
53.178
53.1795
53.1808
53.182
53.183
53.1839
53.1848
53.1856
53.1863
53.187
53.1876
53.1883
53.1889
53.1895
53.19
53.1906
53.1911
53.1916
53.1921
53.1926
53.1931
53.1935
53.194
53.1944
53.1949
53.1953
53.1957
53.196
53.1964
53.1968
53.1972
53.1975
53.1978
53.1982
53.1985
53.1988
53.1991
53.1994
53.1997
53.2
53.2002
53.2005
53.2008
53.201
53.2013
53.2015
53.2017
53.202
53.2022
53.2024
53.2026
53.2028
53.203
53.2032
53.2034
53.2036
53.2038
53.204
53.2042
53.2044
53.2045
53.2047
53.2049
53.205
53.2052
53.2053
53.2055
53.2056
53.2058
53.2059
53.2061
53.2062
53.2063
53.2065
53.2066
53.2067
53.2068
53.207
53.2071
53.2072
53.2073