<?xml version="1.0"?>
<VTKFile type="RectilinearGrid">
<RectilinearGrid WholeExtent="0 3500 0 0 0 0">
<Piece Extent="0 3500 0 0 0 0">
<Coordinates>
<DataArray type="Float32" format="ascii">
0
0.285714
0.571429
0.857143
1.14286
1.42857
1.71429
2
2.28571
2.57143
2.85714
3.14286
3.42857
3.71429
4
4.28571
4.57143
4.85714
5.14286
5.42857
5.71429
6
6.28571
6.57143
6.85714
7.14286
7.42857
7.71429
8
8.28572
8.57143
8.85714
9.14286
9.42857
9.71429
10
10.2857
10.5714
10.8571
11.1429
11.4286
11.7143
12
12.2857
12.5714
12.8571
13.1429
13.4286
13.7143
14
14.2857
14.5714
14.8571
15.1429
15.4286
15.7143
16
16.2857
16.5714
16.8571
17.1429
17.4286
17.7143
18
18.2857
18.5714
18.8571
19.1429
19.4286
19.7143
20
20.2857
20.5714
20.8571
21.1429
21.4286
21.7143
22
22.2857
22.5714
22.8571
23.1429
23.4286
23.7143
24
24.2857
24.5714
24.8571
25.1429
25.4286
25.7143
26
26.2857
26.5714
26.8571
27.1429
27.4286
27.7143
28
28.2857
28.5714
28.8571
29.1429
29.4286
29.7143
30
30.2857
30.5714
30.8571
31.1429
31.4286
31.7143
32
32.2857
32.5714
32.8571
33.1429
33.4286
33.7143
34
34.2857
34.5714
34.8571
35.1429
35.4286
35.7143
36
36.2857
36.5714
36.8571
37.1429
37.4286
37.7143
38
38.2857
38.5714
38.8571
39.1429
39.4286
39.7143
40
40.2857
40.5714
40.8571
41.1429
41.4286
41.7143
42
42.2857
42.5714
42.8571
43.1429
43.4286
43.7143
44
44.2857
44.5714
44.8571
45.1429
45.4286
45.7143
46
46.2857
46.5714
46.8571
47.1429
47.4286
47.7143
48
48.2857
48.5714
48.8571
49.1429
49.4286
49.7143
50
50.2857
50.5714
50.8571
51.1429
51.4286
51.7143
52
52.2857
52.5714
52.8571
53.1429
53.4286
53.7143
54
54.2857
54.5714
54.8571
55.1429
55.4286
55.7143
56
56.2857
56.5714
56.8571
57.1429
57.4286
57.7143
58
58.2857
58.5714
58.8571
59.1429
59.4286
59.7143
60
60.2857
60.5714
60.8571
61.1429
61.4286
61.7143
62
62.2857
62.5714
62.8571
63.1429
63.4286
63.7143
64
64.2857
64.5714
64.8571
65.1429
65.4286
65.7143
66
66.2857
66.5714
66.8571
67.1429
67.4286
67.7143
68
68.2857
68.5714
68.8571
69.1429
69.4286
69.7143
70
70.2857
70.5714
70.8571
71.1429
71.4286
71.7143
72
72.2857
72.5714
72.8571
73.1429
73.4286
73.7143
74
74.2857
74.5714
74.8571
75.1429
75.4286
75.7143
76
76.2857
76.5714
76.8571
77.1429
77.4286
77.7143
78
78.2857
78.5714
78.8571
79.1429
79.4286
79.7143
80
80.2857
80.5714
80.8571
81.1429
81.4286
81.7143
82
82.2857
82.5714
82.8571
83.1429
83.4286
83.7143
84
84.2857
84.5714
84.8571
85.1429
85.4286
85.7143
86
86.2857
86.5714
86.8571
87.1429
87.4286
87.7143
88
88.2857
88.5714
88.8571
89.1429
89.4286
89.7143
90
90.2857
90.5714
90.8571
91.1429
91.4286
91.7143
92
92.2857
92.5714
92.8571
93.1429
93.4286
93.7143
94
94.2857
94.5714
94.8571
95.1429
95.4286
95.7143
96
96.2857
96.5714
96.8571
97.1429
97.4286
97.7143
98
98.2857
98.5714
98.8571
99.1429
99.4286
99.7143
100
100.286
100.571
100.857
101.143
101.429
101.714
102
102.286
102.571
102.857
103.143
103.429
103.714
104
104.286
104.571
104.857
105.143
105.429
105.714
106
106.286
106.571
106.857
107.143
107.429
107.714
108
108.286
108.571
108.857
109.143
109.429
109.714
110
110.286
110.571
110.857
111.143
111.429
111.714
112
112.286
112.571
112.857
113.143
113.429
113.714
114
114.286
114.571
114.857
115.143
115.429
115.714
116
116.286
116.571
116.857
117.143
117.429
117.714
118
118.286
118.571
118.857
119.143
119.429
119.714
120
120.286
120.571
120.857
121.143
121.429
121.714
122
122.286
122.571
122.857
123.143
123.429
123.714
124
124.286
124.571
124.857
125.143
125.429
125.714
126
126.286
126.571
126.857
127.143
127.429
127.714
128
128.286
128.571
128.857
129.143
129.429
129.714
130
130.286
130.571
130.857
131.143
131.429
131.714
132
132.286
132.571
132.857
133.143
133.429
133.714
134
134.286
134.571
134.857
135.143
135.429
135.714
136
136.286
136.571
136.857
137.143
137.429
137.714
138
138.286
138.571
138.857
139.143
139.429
139.714
140
140.286
140.571
140.857
141.143
141.429
141.714
142
142.286
142.571
142.857
143.143
143.429
143.714
144
144.286
144.571
144.857
145.143
145.429
145.714
146
146.286
146.571
146.857
147.143
147.429
147.714
148
148.286
148.571
148.857
149.143
149.429
149.714
150
150.286
150.571
150.857
151.143
151.429
151.714
152
152.286
152.571
152.857
153.143
153.429
153.714
154
154.286
154.571
154.857
155.143
155.429
155.714
156
156.286
156.571
156.857
157.143
157.429
157.714
158
158.286
158.571
158.857
159.143
159.429
159.714
160
160.286
160.571
160.857
161.143
161.429
161.714
162
162.286
162.571
162.857
163.143
163.429
163.714
164
164.286
164.571
164.857
165.143
165.429
165.714
166
166.286
166.571
166.857
167.143
167.429
167.714
168
168.286
168.571
168.857
169.143
169.429
169.714
170
170.286
170.571
170.857
171.143
171.429
171.714
172
172.286
172.571
172.857
173.143
173.429
173.714
174
174.286
174.571
174.857
175.143
175.429
175.714
176
176.286
176.571
176.857
177.143
177.429
177.714
178
178.286
178.571
178.857
179.143
179.429
179.714
180
180.286
180.571
180.857
181.143
181.429
181.714
182
182.286
182.571
182.857
183.143
183.429
183.714
184
184.286
184.571
184.857
185.143
185.429
185.714
186
186.286
186.571
186.857
187.143
187.429
187.714
188
188.286
188.571
188.857
189.143
189.429
189.714
190
190.286
190.571
190.857
191.143
191.429
191.714
192
192.286
192.571
192.857
193.143
193.429
193.714
194
194.286
194.571
194.857
195.143
195.429
195.714
196
196.286
196.571
196.857
197.143
197.429
197.714
198
198.286
198.571
198.857
199.143
199.429
199.714
200
200.286
200.571
200.857
201.143
201.429
201.714
202
202.286
202.571
202.857
203.143
203.429
203.714
204
204.286
204.571
204.857
205.143
205.429
205.714
206
206.286
206.571
206.857
207.143
207.429
207.714
208
208.286
208.571
208.857
209.143
209.429
209.714
210
210.286
210.571
210.857
211.143
211.429
211.714
212
212.286
212.571
212.857
213.143
213.429
213.714
214
214.286
214.571
214.857
215.143
215.429
215.714
216
216.286
216.571
216.857
217.143
217.429
217.714
218
218.286
218.571
218.857
219.143
219.429
219.714
220
220.286
220.571
220.857
221.143
221.429
221.714
222
222.286
222.571
222.857
223.143
223.429
223.714
224
224.286
224.571
224.857
225.143
225.429
225.714
226
226.286
226.571
226.857
227.143
227.429
227.714
228
228.286
228.571
228.857
229.143
229.429
229.714
230
230.286
230.571
230.857
231.143
231.429
231.714
232
232.286
232.571
232.857
233.143
233.429
233.714
234
234.286
234.571
234.857
235.143
235.429
235.714
236
236.286
236.571
236.857
237.143
237.429
237.714
238
238.286
238.571
238.857
239.143
239.429
239.714
240
240.286
240.571
240.857
241.143
241.429
241.714
242
242.286
242.571
242.857
243.143
243.429
243.714
244
244.286
244.571
244.857
245.143
245.429
245.714
246
246.286
246.571
246.857
247.143
247.429
247.714
248
248.286
248.571
248.857
249.143
249.429
249.714
250
250.286
250.571
250.857
251.143
251.429
251.714
252
252.286
252.571
252.857
253.143
253.429
253.714
254
254.286
254.571
254.857
255.143
255.429
255.714
256
256.286
256.571
256.857
257.143
257.429
257.714
258
258.286
258.571
258.857
259.143
259.429
259.714
260
260.286
260.571
260.857
261.143
261.429
261.714
262
262.286
262.571
262.857
263.143
263.429
263.714
264
264.286
264.571
264.857
265.143
265.429
265.714
266
266.286
266.571
266.857
267.143
267.429
267.714
268
268.286
268.571
268.857
269.143
269.429
269.714
270
270.286
270.571
270.857
271.143
271.429
271.714
272
272.286
272.571
272.857
273.143
273.429
273.714
274
274.286
274.571
274.857
275.143
275.429
275.714
276
276.286
276.571
276.857
277.143
277.429
277.714
278
278.286
278.571
278.857
279.143
279.429
279.714
280
280.286
280.571
280.857
281.143
281.429
281.714
282
282.286
282.571
282.857
283.143
283.429
283.714
284
284.286
284.571
284.857
285.143
285.429
285.714
286
286.286
286.571
286.857
287.143
287.429
287.714
288
288.286
288.571
288.857
289.143
289.429
289.714
290
290.286
290.571
290.857
291.143
291.429
291.714
292
292.286
292.571
292.857
293.143
293.429
293.714
294
294.286
294.571
294.857
295.143
295.429
295.714
296
296.286
296.571
296.857
297.143
297.429
297.714
298
298.286
298.571
298.857
299.143
299.429
299.714
300
300.286
300.571
300.857
301.143
301.429
301.714
302
302.286
302.571
302.857
303.143
303.429
303.714
304
304.286
304.571
304.857
305.143
305.429
305.714
306
306.286
306.571
306.857
307.143
307.429
307.714
308
308.286
308.571
308.857
309.143
309.429
309.714
310
310.286
310.571
310.857
311.143
311.429
311.714
312
312.286
312.571
312.857
313.143
313.429
313.714
314
314.286
314.571
314.857
315.143
315.429
315.714
316
316.286
316.571
316.857
317.143
317.429
317.714
318
318.286
318.571
318.857
319.143
319.429
319.714
320
320.286
320.571
320.857
321.143
321.429
321.714
322
322.286
322.571
322.857
323.143
323.429
323.714
324
324.286
324.571
324.857
325.143
325.429
325.714
326
326.286
326.571
326.857
327.143
327.429
327.714
328
328.286
328.571
328.857
329.143
329.429
329.714
330
330.286
330.571
330.857
331.143
331.429
331.714
332
332.286
332.571
332.857
333.143
333.429
333.714
334
334.286
334.571
334.857
335.143
335.429
335.714
336
336.286
336.571
336.857
337.143
337.429
337.714
338
338.286
338.571
338.857
339.143
339.429
339.714
340
340.286
340.571
340.857
341.143
341.429
341.714
342
342.286
342.571
342.857
343.143
343.429
343.714
344
344.286
344.571
344.857
345.143
345.429
345.714
346
346.286
346.571
346.857
347.143
347.429
347.714
348
348.286
348.571
348.857
349.143
349.429
349.714
350
350.286
350.571
350.857
351.143
351.429
351.714
352
352.286
352.571
352.857
353.143
353.429
353.714
354
354.286
354.571
354.857
355.143
355.429
355.714
356
356.286
356.571
356.857
357.143
357.429
357.714
358
358.286
358.571
358.857
359.143
359.429
359.714
360
360.286
360.571
360.857
361.143
361.429
361.714
362
362.286
362.571
362.857
363.143
363.429
363.714
364
364.286
364.571
364.857
365.143
365.429
365.714
366
366.286
366.571
366.857
367.143
367.429
367.714
368
368.286
368.571
368.857
369.143
369.429
369.714
370
370.286
370.571
370.857
371.143
371.429
371.714
372
372.286
372.571
372.857
373.143
373.429
373.714
374
374.286
374.571
374.857
375.143
375.429
375.714
376
376.286
376.571
376.857
377.143
377.429
377.714
378
378.286
378.571
378.857
[...]
<CellData>
<DataArray Name="h" type="Float32" format="ascii">
14
14
14
14
14
14
14
14
14
14
14
14
14
14
14
14
14
14
14
14
14
14
14
14
14
14
14
14
14
14
14
14
14
14
14
14
14
14
14
14
14
14
14
14
14
14
14
14
14
14
14
14
14
14
14
14
14
14
14
14
14
14
14
14
14
14
14
14
14
14
14
14
14
14
14
14
14
14
14
14
14
14
14
14
14
14
14
14
14
14
14
14
14
14
14
14
14
14
14
14
14
14
14
14
14
14
14
14
14
14
14
14
14
14
14
14
14
14
14
14
14
14
14
14
14
14
14
14
14
14
14
14
14
14
14
14
14
14
14
14
14
14
14
14
14
14
14
14
14
14
14
14
14
14
14
14
14
14
14
14
14
14
14
14
14
14
14
14
14
14
14
14
14
14
14
14
14
14
14
14
14
14
14
14
14
14
14
14
14
14
14
14
14
14
14
14
14
14
14
14
14
14
14
14
14
14
14
14
14
14
14
14
14
14
14
14
14
14
14
14
14
14
14
14
14
14
14
14
14
14
14
14
14
14
14
14
14
14
14
14
14
14
14
14
14
14
14
14
14
14
14
14
14
14
14
14
14
14
14
14
14
14
14
14
14
14
14
14
14
14
14
14
14
14
14
14
14
14
14
14
14
14
14
14
14
14
14
14
14
14
14
14
14
14
14
14
14
14
14
14
14
14
14
14
14
14
14
13.9999
13.9999
13.9999
13.9999
13.9999
13.9999
13.9999
13.9998
13.9998
13.9998
13.9997
13.9997
13.9996
13.9995
13.9994
13.9992
13.9991
13.9989
13.9986
13.9983
13.998
13.9976
13.9971
13.9966
13.9959
13.9952
13.9943
13.9933
13.9922
13.9909
13.9894
13.9877
13.9858
13.9837
13.9813
13.9786
13.9757
13.9724
13.9688
13.9648
13.9604
13.9557
13.9505
13.9449
13.9389
13.9324
13.9254
13.918
13.91
13.9016
13.8926
13.8831
13.8731
13.8626
13.8516
13.84
13.8279
13.8154
13.8023
13.7887
13.7746
13.76
13.745
13.7295
13.7135
13.6971
13.6803
13.6631
13.6454
13.6274
13.6089
13.5901
13.571
13.5515
13.5316
13.5114
13.491
13.4702
13.4491
13.4278
13.4062
13.3843
13.3622
13.3398
13.3172
13.2944
13.2714
13.2482
13.2247
13.2011
13.1773
13.1534
13.1292
13.1049
13.0805
13.0559
13.0311
13.0062
12.9812
12.9561
12.9308
12.9054
12.8799
12.8543
12.8285
12.8027
12.7768
12.7507
12.7246
12.6984
12.6721
12.6457
12.6192
12.5926
12.566
12.5393
12.5125
12.4856
12.4587
12.4317
12.4046
12.3775
12.3503
12.3231
12.2957
12.2684
12.2409
12.2135
12.1859
12.1583
12.1307
12.103
12.0752
12.0474
12.0196
11.9917
11.9638
11.9358
11.9077
11.8797
11.8515
11.8234
11.7952
11.7669
11.7386
11.7103
11.6819
11.6535
11.6251
11.5966
11.568
11.5395
11.5109
11.4822
11.4535
11.4248
11.396
11.3673
11.3384
11.3096
11.2806
11.2517
11.2227
11.1937
11.1647
11.1356
11.1065
11.0773
11.0482
11.0189
10.9897
10.9604
10.9311
10.9017
10.8723
10.8429
10.8134
10.7839
10.7544
10.7248
10.6952
10.6656
10.6359
10.6062
10.5765
10.5467
10.5169
10.4871
10.4572
10.4273
10.3973
10.3674
10.3373
10.3073
10.2772
10.2471
10.2169
10.1867
10.1565
10.1262
10.0959
10.0656
10.0352
10.0048
9.97435
9.94387
9.91334
9.88278
9.85219
9.82156
9.79088
9.76018
9.72943
9.69864
9.66782
9.63696
9.60606
9.57512
9.54415
9.51313
9.48208
9.45099
9.41986
9.38868
9.35748
9.32623
9.29494
9.26361
9.23224
9.20084
9.16939
9.13791
9.10639
9.07482
9.04322
9.01158
8.9799
8.94818
8.91643
8.88463
8.8528
8.82094
8.78903
8.75709
8.72512
8.6931
8.66106
8.62898
8.59687
8.56473
8.53255
8.50035
8.46812
8.43586
8.40358
8.37128
8.33895
8.30661
8.27425
8.24188
8.2095
8.17711
8.14472
8.11233
8.07994
8.04756
8.0152
7.98286
7.95054
7.91826
7.88602
7.85384
7.82171
7.78965
7.75767
7.72578
7.694
7.66234
7.63082
7.59945
7.56825
7.53725
7.50647
7.47593
7.44567
7.4157
7.38607
7.35681
7.32796
7.29956
7.27165
7.24428
7.2175
7.19137
7.16594
7.14127
7.11741
7.09443
7.07239
7.05135
7.03137
7.01249
6.99476
6.97823
6.96292
6.94885
6.93603
6.92446
6.9141
6.90494
6.89691
6.88996
6.88401
6.87898
6.87477
6.87129
6.86846
6.86618
6.86435
6.86291
6.86177
6.86088
6.86017
6.85961
6.85916
6.85879
6.85847
6.85818
6.85793
6.85769
6.85746
6.85724
6.85703
6.85682
6.85661
6.8564
6.8562
6.85601
6.85581
6.85562
6.85543
6.85525
6.85507
6.8549
6.85473
6.85456
6.8544
6.85424
6.85409
6.85394
6.85379
6.85365
6.85351
6.85338
6.85325
6.85312
6.85299
6.85287
6.85276
6.85264
6.85253
6.85242
6.85231
6.85221
6.85211
6.85201
6.85192
6.85182
6.85173
6.85164
6.85155
6.85147
6.85138
6.8513
6.85122
6.85114
6.85106
6.85099
6.85091
6.85083
6.85076
6.85069
6.85062
6.85055
6.85048
6.85041
6.85034
6.85028
6.85021
6.85015
6.85008
6.85002
6.84996
6.8499
6.84984
6.84978
6.84973
6.84967
6.84962
6.84956
6.84951
6.84946
6.8494
6.84935
6.84931
6.84926
6.84921
6.84916
6.84911
6.84906
6.84902
6.84897
6.84892
6.84888
6.84884
6.84879
6.84875
6.84871
6.84866
6.84862
6.84858
6.84854
6.8485
6.84846
6.84842
6.84839
6.84835
6.84831
6.84827
6.84823
6.8482
6.84816
6.84812
6.84809
6.84805
6.84802
6.84798
6.84795
6.84791
6.84788
6.84785
6.84781
6.84778
6.84775
6.84771
6.84768
6.84765
6.84762
6.84759
6.84756
6.84753
6.8475
6.84747
6.84744
6.84741
6.84738
6.84735
6.84732
6.84729
6.84726
6.84724
6.84721
6.84718
6.84715
6.84712
6.8471
6.84707
6.84704
6.84702
6.84699
6.84696
6.84694
6.84691
6.84688
6.84686
6.84683
6.84681
6.84678
6.84676
6.84673
6.84671
6.84668
6.84666
6.84663
6.84661
6.84658
6.84656
6.84654
6.84651
6.84649
6.84646
6.84644
6.84642
6.84639
6.84637
6.84635
6.84632
6.8463
6.84628
6.84626
6.84623
6.84621
6.84619
6.84617
6.84614
6.84612
6.8461
6.84608
6.84606
6.84604
6.84601
6.84599
6.84597
6.84595
6.84593
6.84591
6.84588
6.84586
6.84584
6.84582
6.8458
6.84578
6.84576
6.84574
6.84572
6.84569
6.84567
6.84565
6.84563
6.84561
6.84559
6.84557
6.84555
6.84553
6.84551
6.84549
6.84547
6.84545
6.84543
6.84541
6.84539
6.84537
6.84535
6.84533
6.84531
6.84529
6.84527
6.84525
6.84523
6.84521
6.84519
6.84517
6.84515
6.84513
6.84511
6.84509
6.84507
6.84505
6.84503
6.84501
6.84499
6.84497
6.84495
6.84493
6.84491
6.8449
6.84488
6.84486
6.84484
6.84482
6.8448
6.84478
6.84476
6.84474
6.84472
6.8447
6.84468
6.84466
6.84464
6.84462
6.8446
6.84458
6.84457
6.84455
6.84453
6.84451
6.84449
6.84447
6.84445
6.84443
6.84441
6.84439
6.84437
6.84435
6.84433
6.84431
6.84429
6.84427
6.84425
6.84423
6.84421
6.84419
6.84417
6.84415
6.84413
6.84411
6.84409
6.84407
6.84405
6.84403
6.84401
6.84399
6.84397
6.84395
6.84393
6.84391
6.84389
6.84387
6.84385
6.84383
6.84381
6.84379
6.84377
6.84374
6.84372
6.8437
6.84368
6.84366
6.84364
6.84362
6.8436
6.84358
6.84355
6.84353
6.84351
6.84349
6.84347
6.84345
6.84343
6.84341
6.84338
6.84336
6.84334
6.84332
6.8433
6.84327
6.84325
6.84323
6.84321
6.84318
6.84316
6.84314
6.84312
6.84309
6.84307
6.84305
6.84302
6.843
6.84298
6.84296
6.84293
6.84291
6.84288
6.84286
6.84283
6.84281
6.84278
6.84276
6.84273
6.84271
6.84269
6.84266
6.84264
6.84261
6.84259
6.84256
6.84254
6.84251
6.84248
6.84246
6.84243
6.8424
6.84237
6.84235
6.84232
6.8423
6.84228
6.84225
6.84222
6.84219
6.84217
6.84214
6.84211
6.84208
6.84205
6.84202
6.842
6.84197
6.84195
6.84192
6.84189
6.84186
6.84182
6.84179
6.84176
6.84173
6.8417
6.84167
6.84164
6.84161
6.84158
6.84156
6.84153
6.84149
6.84146
6.84142
6.84138
6.84134
6.84131
6.84127
6.84124
6.84121
6.84118
6.84116
6.84112
6.84109
6.84105
6.84102
6.84097
6.84093
6.84089
6.84086
6.84082
6.84079
6.84076
6.84073
6.84069
6.84066
6.84061
6.84057
6.84052
6.84047
6.84042
6.84038
6.84034
6.84031
6.84027
6.84024
6.84021
6.84017
6.84013
6.84008
6.84003
6.83997
6.83991
6.83986
6.83981
6.83977
6.83973
6.83969
6.83964
6.83957
6.83943
6.83913
6.83846
6.83687
6.83279
6.82227
6.79527
6.72555
6.54704
6.10668
5.1654
3.87896
3.18053
3.02568
3.00333
3.00042
3.00005
3.00001
3
3
3
3
3
3
3
3
3
3
3
3
3
3
3
3
3
3
3
3
3
3
3
3
3
3
3
3
3
3
3
3
3
3
3
3
3
3
3
3
3
3
3
3
3
3
3
3
3
3
3
3
3
3
3
3
3
3
3
3
3
3
3
3
3
3
3
3
3
3
3
3
3
3
3
3
3
3
3
3
3
3
3
3
3
3
3
3
3
3
3
3
3
3
3
3
3
3
3
3
3
3
3
3
3
3
3
3
3
3
3
3
3
3
3
3
3
3
3
3
3
3
3
3
3
3
3
3
3
3
3
3
3
3
3
3
3
3
3
3
3
3
3
3
3
3
3
3
3
3
3
3
3
3
3
3
3
3
3
3
3
3
3
3
3
3
3
3
3
3
3
3
3
3
3
3
3
3
3
3
3
3
3
3
3
3
3
3
3
3
3
3
3
3
3
3
3
3
3
3
3
3
3
3
3
3
3
3
3
3
3
3
3
3
3
3
3
3
3
3
3
3
3
3
3
3
3
3
3
3
3
3
3
3
3
3
3
3
3
3
3
3
3
3
3
3
3
3
3
3
3
3
3
3
3
3
3
3
3
3
3
3
3
3
3
3
3
3
3
3
3
3
3
3
3
3
3
3
3
3
3
3
3
3
3
3
3
3
3
3
3
3
3
3
3
3
3
3
3
3
3
3
3
3
3
3
3
3
3
3
3
3
3
3
3
3
3
3
3
3
3
3
3
3
3
3
3
3
3
3
3
3
3
3
3
3
3
3
3
3
3
3
3
3
3
3
3
3
3
3
3
3
3
3
3
3
3
3
3
3
3
3
3
3
3
3
3
3
3
3
3
3
3
3
3
3
3
3
3
3
3
3
3
3
3
3
3
3
3
3
3
3
3
3
3
3
3
3
3
3
3
3
3
3
3
3
3
3
3
3
3
3
3
3
3
3
3
3
3
3
3
3
3
3
3
3
3
3
3
3
3
3
3
3
3
3
3
3
3
3
3
3
3
3
3
3
3
3
3
3
3
3
3
3
3
3
3
3
3
3
3
3
3
3
3
3
3
3
3
3
3
3
3
3
3
3
3
3
3
3
3
3
3
3
3
3
3
3
3
3
3
3
3
3
3
3
3
3
3
3
3
3
3
3
3
3
3
3
3
3
3
3
3
3
3
3
3
3
3
3
3
3
3
3
3
3
3
3
3
3
3
3
3
3
3
3
3
3
3
3
3
3
3
3
3
3
3
3
3
3
3
3
3
3
3
3
3
3
3
3
3
3
3
3
3
3
3
3
3
3
3
3
3
3
3
3
3
3
3
3
3
3
3
3
3
3
3
3
3
3
3
3
3
3
3
3
3
3
3
3
3
3
3
3
3
3
3
3
3
3
3
3
3
3
3
3
3
3
3
3
3
3
3
3
3
3
3
3
3
3
3
3
3
3
3
3
3
3
3
3
3
3
3
3
3
3
3
3
3
3
3
3
3
3
3
3
3
3
3
3
3
3
3
3
3
3
3
3
3
3
3
3
3
3
3
3
3
3
3
3
3
3
3
3
3
3
3
3
3
3
3
3
3
3
3
3
3
3
3
3
3
3
3
3
3
3
3
3
3
3
3
3
3
3
3
3
3
3
3
3
3
3
3
3
3
3
3
3
3
3
3
3
3
3
3
3
3
3
3
3
3
3
3
3
3
3
3
3
3
3
3
3
3
3
3
3
3
3
3
3
3
3
3
3
3
3
3
3
3
3
3
3
3
3
3
3
3
3
3
3
3
3
3
3
3
3
3
3
3
3
3
3
3
3
3
3
3
3
3
3
3
3
3
3
3
3
3
3
3
3
3
3
3
3
3
3
3
3
3
3
3
3
3
3
3
3
3
3
3
3
3
3
3
3
3
3
3
3
3
3
3
3
3
3
3
3
3
3
3
3
3
3
3
3
3
3
3
3
3
3
3
3
3
3
3
3
3
3
3
3
3
3
3
3
3
3
3
3
3
3
3
3
3
3
3
3
3
3
3
3
3
3
3
3
3
3
3
3
3
3
3
3
3
3
3
3
3
3
3
3
3
3
3
3
3
3
3
3
3
3
3
3
3
3
3
3
3
3
3
3
3
3
3
3
3
3
3
3
3
3
3
3
3
3
3
3
3
3
3
3
3
3
3
3
3
3
3
3
3
3
3
3
3
3
3
3
3
3
3
3
3
3
3
3
3
3
3
3
3
3
3
3
3
3
3
3
3
3
3
3
3
3
3
3
3
3
3
3
3
3
3
3
3
3
3
3
3
3
3
3
3
3
3
3
3
3
3
3
3
3
3
3
3
3
3
3
3
3
3
3
3
3
3
3
3
3
3
3
3
3
3
3
3
3
3
3
3
3
3
3
3
3
3
3
3
3
3
3
3
3
3
3
3
3
3
3
3
3
3
3
3
3
3
3
3
3
3
3
3
3
3
3
3
3
3
3
3
3
3
3
3
3
3
3
3
3
3
3
3
3
3
3
3
3
3
3
3
3
3
3
3
3
3
3
3
3
3
3
3
3
3
3
3
3
3
3
3
3
3
3
3
3
3
3
3
3
3
3
3
3
3
3
3
3
3
3
3
3
3
3
3
3
3
3
3
3
3
3
3
3
3
3
3
3
3
3
3
3
3
3
3
3
3
3
3
3
3
3
3
3
3
3
3
3
3
3
3
3
3
3
3
3
3
3
3
3
3
3
3
3
3
3
3
3
3
3
3
3
3
3
3
3
3
3
3
3
3
3
3
3
3
3
3
3
3
3
3
3
3
3
3
3
3
3
3
3
3
3
3
3
3
3
3
3
3
3
3
3
3
3
3
3
3
3
3
3
3
3
3
3
3
3
3
3
3
3
3
3
3
3
3
3
3
3
3
3
3
3
3
3
3
3
3
3
3
3
3
3
3
3
3
3
3
3
3
3
3
3
3
3
3
3
3
3
3
3
3
3
3
3
3
3
3
3
3
3
3
3
3
3
3
3
3
3
3
3
3
3
3
3
3
3
3
3
3
3
3
3
3
3
3
3
3
3
3
3
3
3
3
3
3
3
3
3
3
3
3
3
3
3
3
3
3
3
3
3
3
3
3
3
3
3
3
3
3
3
3
3
3
3
3
3
3
3
3
3
3
3
3
3
3
3
3
3
3
3
3
3
3
3
3
3
3
3
3
3
3
3
3
3
3
3
3
3
3
3
3
3
3
3
3
3
3
3
3
3
3
3
3
3
3
3
3
3
3
3
3
3
3
3
3
3
3
3
3
3
3
3
3
3
3
3
3
3
3
3
3
3
3
3
3
3
3
3
3
3
3
3
3
3
3
3
3
3
3
3
3
3
3
3
3
3
3
3
3
3
3
3
3
3
3
3
3
3
3
3
3
3
3
3
3
3
3
3
3
3
3
3
3
3
3
3
3
3
3
3
3
3
3
3
3
3
3
3
3
3
3
3
3
3
3
3
3
3
3
3
3
3
3
3
3
3
3
3
3
3
3
3
3
3
3
3
3
3
3
3
3
3
3
3
3
3
3
3
3
3
3
3
3
3
3
3
3
3
3
3
3
3
3
3
3
3
3
3
3
3
3
3
3
3
3
3
3
3
3
3
3
3
3
3
3
3
3
3
3
3
3
3
3
3
3
3
3
3
3
3
3
3
3
3
3
3
3
3
3
3
3
3
3
3
3
3
3
3
3
3
3
3
3
3
3
3
3
3
3
3
3
3
3
3
3
3
3
3
3
3
3
3
3
3
3
3
3
3
3
3
3
3
3
3
3
3
3
3
3
3
3
3
3
3
3
3
3
3
3
3
3
3
3
3
3
3
3
3
3
3
3
3
3
3
3
3
3
3
3
3
3
3
3
3
3
3
3
3
3
3
3
3
3
3
3
3
3
3
3
3
3
3
3
3
3
3
3
3
3
3
3
3
3
3
3
3
3
3
3
3
3
3
3
3
3
3
3
3
3
3
3
3
3
3
3
3
3
3
3
3
3
3
3
3
3
3
3
3
3
3
3
3
3
3
3
3
3
3
3
3
3
3
3
3
3
3
3
3
3
3
3
3
3
3
3
3
3
3
3
3
3
3
3
3
3
3
3
3
3
3
3
3
3
3
3
3
3
3
3
3
3
3
3
3
3
3
3
3
3
3
3
3
3
3
3
3
3
3
3
3
3
3
3
3
3
3
3
3
3
3
3
3
3
3
3
3
3
3
3
3
3
3
3
3
3
3
3
3
3
3
3
3
3
3
3
3
3
3
3
3
3
3
3
3
3
3
3
3
3
3
3
3
3
3
3
3
3
3
3
3
3
3
3
3
3
3
3
3
3
3
3
3
3
3
3
3
3
3
3
3
3
3
3
3
3
3
3
3
3
3
3
3
3
3
3
3
3
3
3
3
3
3
3
3
3
3
3
3
3
3
3
3
3
3
3
3
3
3
3
3
3
3
3
3
3
3
3
3
3
3
3
3
3
3
3
3
3
3
3
3
3
3
3
3
3
3
3
3
3
3
3
3
3
3
3
3
3
3
3
3
3
3
3
3
3
3
3
3
3
3
3
3
3
3
3
3
3
3
3
3
3
3
3
3
3
3
3
3
3
3
3
3
3
3
3
3
3
3
3
3
3
3
3
3
3
3
3
3
3
3
3
3
3
3
3
3
3
3
3
3
3
3
3
3
3
3
3
3
3
3
3
3
3
3
3
3
3
3
3
3
3
3
3
3
3
3
3
3
3
3
3
3
3
3
3
3
3
3
3
3
3
3
3
3
3
3
3
3
3
3
3
3
3
3
3
3
3
3
3
3
3
3
3
3
3
3
3
3
3
3
3
3
3
3
3
3
3
3
3
3
3
3
3
3
3
3
3
3
3
3
3
3
3
3
3
3
3
3
3
3
3
3
3
3
3
3
3
3
3
3
3
3
3
3
3
3
3
3
3
3
3
3
3
3
3
3
3
3
3
3
3
3
3
3
3
3
3
3
3
3
3
3
3
3
3
3
3
3
3
3
3
3
3
3
3
3
3
3
3
3
3
3
3
3
3
3
3
3
3
3
3
3
3
3
3
3
3
3
3
3
3
3
3
3
3
3
3
3
3
3
3
3
3
3
3
3
3
3
3
3
3
3
3
3
3
3
3
3
3
3
3
3
3
3
3
3
3
3
3
3
3
3
3
3
3
3
3
3
3
3
3
3
3
3
3
3
3
3
3
3
3
3
3
3
3
3
3
3
3
3
3
3
3
3
3
3
3
3
3
3
3
3
3
3
3
3
3
3
3
3
3
3
3
3
3
3
3
3
3
3
3
3
3
3
3
3
3
3
3
3
3
3
3
3
3
3
3
3
3
3
3
3
3
3
3
3
3
3
3
3
3
3
3
3
3
3
3
3
3
3
3
3
3
3
3
3
3
3
3
3
3
3
3
3
3
3
3
3
3
3
3
3
3
3
3
3
3
</DataArray>
<DataArray Name="hu" type="Float32" format="ascii">
0
0
0
0
0
0
0
0
0
0
0
0
0
0
0
0
0
0
0
0
0
0
0
0
0
0
0
0
0
0
0
0
0
0
0
0
0
0
0
0
0
0
0
0
0
0
0
0
0
0
0
0
0
0
0
0
0
0
0
0
0
0
0
0
0
0
0
0
0
0
0
0
0
0
0
0
0
0
0
0
0
0
0
0
0
0
0
0
0
0
0
0
0
0
0
0
0
0
0
0
0
0
0
0
0
0
0
0
0
0
0
0
0
0
0
0
0
0
0
0
0
0
0
0
0
0
0
0
0
0
0
0
0
0
0
0
0
0
0
0
0
0
0
0
0
0
0
0
0
0
0
0
0
0
0
0
0
0
0
0
0
0
0
0
0
0
0
0
0
0
0
0
0
0
0
0
0
0
0
0
0
0
0
0
0
0
0
0
0
0
0
0
0
0
0
0
0
0
0
0
0
0
0
0
0
0
0
0
0
0
0
0
0
0
0
0
0
0
0
0
0
0
0
0
0
0
0
0
0
0
0
0
0
0
0
0
0
0
0
0
0
0
0
0
0
0
0
0
8.40779e-45
8.12753e-44
7.74918e-43
7.31618e-42
6.92886e-41
6.57411e-40
6.24451e-39
5.93292e-38
5.63237e-37
5.33656e-36
5.04036e-35
4.74024e-34
4.43465e-33
4.12415e-32
3.81136e-31
3.50071e-30
3.1978e-29
2.90851e-28
2.63803e-27
2.38982e-26
2.16527e-25
1.9637e-24
1.78312e-23
1.62106e-22
1.47544e-21
1.34525e-20
1.23104e-19
1.13457e-18
1.05729e-17
9.9813e-17
9.52183e-16
9.11318e-15
8.6607e-14
8.09846e-13
7.4341e-12
6.69476e-11
5.89627e-10
5.04481e-09
4.48161e-08
3.9975e-07
4.93986e-06
1.62468e-05
3.80252e-05
6.19101e-05
8.45766e-05
0.000111326
0.000138334
0.00017002
0.000200134
0.000227749
0.000259664
0.000293979
0.000327376
0.000357052
0.00038548
0.000414112
0.000444701
0.000479939
0.000517859
0.000570186
0.000641856
0.000736259
0.000856095
0.00100059
0.0011884
0.00143148
0.00173504
0.00211589
0.00259446
0.00319116
0.00393144
0.00484082
0.00595396
0.00730617
0.0089409
0.0109105
0.0132724
0.0160965
0.0194535
0.0234347
0.0281416
0.0336709
0.0401386
0.0476751
0.056429
0.0665553
0.0782144
0.0915828
0.106849
0.124224
0.143921
0.166141
0.191107
0.219057
0.250224
0.284847
0.323165
0.365409
0.411808
0.46259
0.517966
0.578133
0.643273
0.713571
0.789191
0.870257
0.956894
1.04921
1.14729
1.25117
1.36091
1.47653
1.59803
1.72538
1.85854
1.99747
2.14208
2.2923
2.44801
2.60912
2.7755
2.947
3.12349
3.30484
3.49088
3.68145
3.87641
4.07558
4.27881
4.48593
4.69678
4.91119
5.129
5.35005
5.5742
5.80128
6.03116
6.2637
6.49874
6.73615
6.9758
7.21756
7.46132
7.70694
7.95431
8.20332
8.45389
8.70589
8.95924
9.21382
9.46957
9.72639
9.9842
10.2429
10.5025
10.7628
11.0238
11.2854
11.5477
11.8104
12.0736
12.3371
12.601
12.8653
13.1297
13.3944
13.6592
13.9241
14.1892
14.4542
14.7193
14.9844
15.2494
15.5143
15.779
16.0437
16.3081
16.5724
16.8364
17.1002
17.3637
17.6269
17.8898
18.1524
18.4146
18.6764
18.9378
19.1989
19.4595
19.7197
19.9794
20.2386
20.4974
20.7557
21.0135
21.2708
21.5275
21.7837
22.0394
22.2945
22.549
22.8029
23.0563
23.3091
23.5612
23.8127
24.0637
24.314
24.5636
24.8127
25.061
25.3088
25.5558
25.8022
26.0479
26.293
26.5373
26.781
27.024
27.2663
27.5078
27.7487
27.9889
28.2283
28.467
28.705
28.9423
29.1788
29.4146
29.6497
29.884
30.1176
30.3504
30.5825
30.8139
31.0444
31.2742
31.5033
31.7316
31.9591
32.1859
32.4118
32.637
32.8615
33.0851
33.308
33.5301
33.7514
33.9719
34.1916
34.4105
34.6286
34.846
35.0625
35.2783
35.4932
35.7073
35.9207
36.1332
36.3449
36.5558
36.7659
36.9752
37.1837
37.3913
37.5981
37.8041
38.0093
38.2137
38.4172
38.6199
38.8218
39.0228
39.2231
39.4225
39.621
39.8187
40.0156
40.2116
40.4068
40.6011
40.7946
40.9872
41.179
41.3699
41.56
41.7492
41.9376
42.125
42.3117
42.4974
42.6823
42.8663
43.0494
43.2317
43.413
43.5935
43.7731
43.9517
44.1295
44.3064
44.4824
44.6574
44.8315
45.0047
45.177
45.3484
45.5188
45.6882
45.8567
46.0243
46.1909
46.3564
46.521
46.6846
46.8472
47.0088
47.1693
47.3288
47.4873
47.6447
47.801
47.9561
48.1102
48.2631
48.4149
48.5655
48.7149
48.863
49.0099
49.1554
49.2997
49.4426
49.5841
49.7241
49.8627
49.9997
50.1351
50.2689
50.4009
50.5312
50.6596
50.7861
50.9105
51.0329
51.153
51.2708
51.3861
51.4989
51.6089
51.7162
51.8204
51.9215
52.0193
52.1136
52.2043
52.2912
52.3741
52.4529
52.5274
52.5975
52.6631
52.7241
52.7803
52.8319
52.8788
52.921
52.9588
52.9922
53.0214
53.0466
53.0683
53.0866
53.1018
53.1145
53.1247
53.133
53.1396
53.1448
53.1489
53.1521
53.1546
53.1565
53.1581
53.1594
53.1604
53.1614
53.1622
53.1629
53.1637
53.1644
53.165
53.1657
53.1663
53.167
53.1676
53.1682
53.1688
53.1694
53.1699
53.1705
53.171
53.1716
53.1721
53.1726
53.1731
53.1735
53.174
53.1744
53.1748
53.1752
53.1756
53.176
53.1764
53.1767
53.1771
53.1774
53.1777
53.178
53.1783
53.1786
53.1789
53.1792
53.1794
53.1797
53.1799
53.1801
53.1804
53.1806
53.1808
53.181
53.1812
53.1814
53.1816
53.1818
53.1819
53.1821
53.1823
53.1824
53.1826
53.1827
53.1829
53.183
53.1832
53.1833
53.1834
53.1836
53.1837
53.1838
53.1839
53.184
53.1841
53.1842
53.1843
53.1844
53.1845
53.1846
53.1847
53.1848
53.1848
53.1849
53.185
53.185
53.1851
53.1852
53.1852
53.1853
53.1853
53.1854
53.1854
53.1855
53.1855
53.1856
53.1856
53.1856
53.1857
53.1857
53.1857
53.1858
53.1858
53.1858
53.1858
53.1858
53.1858
53.1859
53.1859
53.1859
53.1859
53.1859
53.1859
53.1859
53.1859
53.1859
53.1859
53.1859
53.1859
53.1859
53.1859
53.1859
53.1859
53.1858
53.1858
53.1858
53.1858
53.1858
53.1858
53.1857
53.1857
53.1857
53.1856
53.1856
53.1856
53.1855
53.1855
53.1855
53.1854
53.1854
53.1854
53.1853
53.1853
53.1852
53.1852
53.1852
53.1851
53.1851
53.185
53.185
53.1849
53.1849
53.1848
53.1847
53.1847
53.1846
53.1846
53.1845
53.1845
53.1844
53.1843
53.1843
53.1842
53.1841
53.1841
53.184
53.1839
53.1838
53.1838
53.1837
53.1836
53.1836
53.1835
53.1834
53.1833
53.1832
53.1832
53.1831
53.183
53.1829
53.1828
53.1827
53.1827
53.1826
53.1825
53.1824
53.1823
53.1822
53.1821
53.182
53.1819
53.1818
53.1817
53.1816
53.1815
53.1814
53.1813
53.1812
53.1811
53.181
53.1809
53.1808
53.1807
53.1806
53.1804
53.1803
53.1802
53.1801
53.18
53.1799
53.1797
53.1796
53.1795
53.1794
53.1793
53.1791
53.179
53.1789
53.1788
53.1786
53.1785
53.1784
53.1782
53.1781
53.178
53.1778
53.1777
53.1776
53.1774
53.1773
53.1771
53.177
53.1769
53.1767
53.1766
53.1764
53.1763
53.1761
53.176
53.1758
53.1757
53.1755
53.1754
53.1752
53.1751
53.1749
53.1747
53.1746
53.1744
53.1743
53.1741
53.1739
53.1738
53.1736
53.1734
53.1733
53.1731
53.1729
53.1727
53.1726
53.1724
53.1722
53.172
53.1718
53.1716
53.1715
53.1713
53.1711
53.1709
53.1707
53.1705
53.1703
53.1701
53.1699
53.1698
53.1696
53.1694
53.1692
53.1689
53.1687
53.1685
53.1683
53.1681
53.1679
53.1677
53.1675
53.1673
53.1671
53.1668
53.1666
53.1664
53.1662
53.166
53.1657
53.1655
53.1653
53.165
53.1648
53.1646
53.1643
53.1641
53.1639
53.1636
53.1634
53.1631
53.1629
53.1626
53.1624
53.1621
53.1619
53.1616
53.1614
53.1611
53.1609
53.1606
53.1603
53.16
53.1598
53.1595
53.1592
53.1589
53.1587
53.1584
53.1581
53.1578
53.1576
53.1573
53.157
53.1567
53.1564
53.1561
53.1558
53.1555
53.1552
53.1549
53.1546
53.1543
53.1539
53.1536
53.1533
53.153
53.1527
53.1523
53.152
53.1517
53.1513
53.151
53.1507
53.1503
53.15
53.1496
53.1493
53.1489
53.1486
53.1482
53.1479
53.1475
53.1471
53.1467
53.1464
53.146
53.1456
53.1453
53.1449
53.1445
53.1441
53.1437
53.1433
53.1429
53.1424
53.142
53.1416
53.1412
53.1408
53.1404
53.14
53.1395
53.1391
53.1386
53.1382
53.1377
53.1373
53.1368
53.1364
53.1359
53.1355
53.135
53.1345
53.1341
53.1336
53.1331
53.1326
53.1321
53.1315
53.131
53.1305
53.13
53.1295
53.129
53.1285
53.128
53.1274
53.1269
53.1263
53.1257
53.1252
53.1246
53.124
53.1234
53.1228
53.1223
53.1217
53.1211
53.1205
53.1199
53.1192
53.1186
53.1179
53.1173
53.1166
53.116
53.1153
53.1147
53.114
53.1134
53.1127
53.112
53.1113
53.1105
53.1098
53.109
53.1083
53.1075
53.1068
53.106
53.1053
53.1046
53.1038
53.103
53.1022
53.1013
53.1003
53.0991
53.0973
53.0943
53.088
53.0729
53.0347
52.9376
52.6883
52.0479
50.4217
46.4257
37.5003
22.2118
7.56322
1.83561
0.847961
0.718874
0.702405
0.700306
0.700039
0.700005
0.700001
0.7
0.7
0.7
0.7
0.7
0.7
0.7
0.7
0.7
0.7
0.7
0.7
0.7
0.7
0.7
0.7
0.7
0.7
0.7
0.7
0.7
0.7
0.7
0.7
0.7
0.7
0.7
0.7
0.7
0.7
0.7
0.7
0.7
0.7
0.7
0.7
0.7
0.7
0.7
0.7
0.7
0.7
0.7
0.7
0.7
0.7
0.7
0.7
0.7
0.7
0.7
0.7
0.7
0.7
0.7
0.7
0.7
0.7
0.7
0.7
0.7
0.7
0.7
0.7
0.7
0.7
0.7
0.7
0.7
0.7
0.7
0.7
0.7
0.7
0.7
0.7
0.7
0.7
0.7
0.7
0.7
0.7
0.7
0.7
0.7
0.7
0.7
0.7
0.7
0.7
0.7
0.7
0.7
0.7
0.7
0.7
0.7
0.7
0.7
0.7
0.7
0.7
0.7
0.7
0.7
0.7
0.7
0.7
0.7
0.7
0.7
0.7
0.7
0.7
0.7
0.7
0.7
0.7
0.7