<?xml version="1.0"?>
<VTKFile type="RectilinearGrid">
<RectilinearGrid WholeExtent="0 3500 0 0 0 0">
<Piece Extent="0 3500 0 0 0 0">
<Coordinates>
<DataArray type="Float32" format="ascii">
0
0.285714
0.571429
0.857143
1.14286
1.42857
1.71429
2
2.28571
2.57143
2.85714
3.14286
3.42857
3.71429
4
4.28571
4.57143
4.85714
5.14286
5.42857
5.71429
6
6.28571
6.57143
6.85714
7.14286
7.42857
7.71429
8
8.28572
8.57143
8.85714
9.14286
9.42857
9.71429
10
10.2857
10.5714
10.8571
11.1429
11.4286
11.7143
12
12.2857
12.5714
12.8571
13.1429
13.4286
13.7143
14
14.2857
14.5714
14.8571
15.1429
15.4286
15.7143
16
16.2857
16.5714
16.8571
17.1429
17.4286
17.7143
18
18.2857
18.5714
18.8571
19.1429
19.4286
19.7143
20
20.2857
20.5714
20.8571
21.1429
21.4286
21.7143
22
22.2857
22.5714
22.8571
23.1429
23.4286
23.7143
24
24.2857
24.5714
24.8571
25.1429
25.4286
25.7143
26
26.2857
26.5714
26.8571
27.1429
27.4286
27.7143
28
28.2857
28.5714
28.8571
29.1429
29.4286
29.7143
30
30.2857
30.5714
30.8571
31.1429
31.4286
31.7143
32
32.2857
32.5714
32.8571
33.1429
33.4286
33.7143
34
34.2857
34.5714
34.8571
35.1429
35.4286
35.7143
36
36.2857
36.5714
36.8571
37.1429
37.4286
37.7143
38
38.2857
38.5714
38.8571
39.1429
39.4286
39.7143
40
40.2857
40.5714
40.8571
41.1429
41.4286
41.7143
42
42.2857
42.5714
42.8571
43.1429
43.4286
43.7143
44
44.2857
44.5714
44.8571
45.1429
45.4286
45.7143
46
46.2857
46.5714
46.8571
47.1429
47.4286
47.7143
48
48.2857
48.5714
48.8571
49.1429
49.4286
49.7143
50
50.2857
50.5714
50.8571
51.1429
51.4286
51.7143
52
52.2857
52.5714
52.8571
53.1429
53.4286
53.7143
54
54.2857
54.5714
54.8571
55.1429
55.4286
55.7143
56
56.2857
56.5714
56.8571
57.1429
57.4286
57.7143
58
58.2857
58.5714
58.8571
59.1429
59.4286
59.7143
60
60.2857
60.5714
60.8571
61.1429
61.4286
61.7143
62
62.2857
62.5714
62.8571
63.1429
63.4286
63.7143
64
64.2857
64.5714
64.8571
65.1429
65.4286
65.7143
66
66.2857
66.5714
66.8571
67.1429
67.4286
67.7143
68
68.2857
68.5714
68.8571
69.1429
69.4286
69.7143
70
70.2857
70.5714
70.8571
71.1429
71.4286
71.7143
72
72.2857
72.5714
72.8571
73.1429
73.4286
73.7143
74
74.2857
74.5714
74.8571
75.1429
75.4286
75.7143
76
76.2857
76.5714
76.8571
77.1429
77.4286
77.7143
78
78.2857
78.5714
78.8571
79.1429
79.4286
79.7143
80
80.2857
80.5714
80.8571
81.1429
81.4286
81.7143
82
82.2857
82.5714
82.8571
83.1429
83.4286
83.7143
84
84.2857
84.5714
84.8571
85.1429
85.4286
85.7143
86
86.2857
86.5714
86.8571
87.1429
87.4286
87.7143
88
88.2857
88.5714
88.8571
89.1429
89.4286
89.7143
90
90.2857
90.5714
90.8571
91.1429
91.4286
91.7143
92
92.2857
92.5714
92.8571
93.1429
93.4286
93.7143
94
94.2857
94.5714
94.8571
95.1429
95.4286
95.7143
96
96.2857
96.5714
96.8571
97.1429
97.4286
97.7143
98
98.2857
98.5714
98.8571
99.1429
99.4286
99.7143
100
100.286
100.571
100.857
101.143
101.429
101.714
102
102.286
102.571
102.857
103.143
103.429
103.714
104
104.286
104.571
104.857
105.143
105.429
105.714
106
106.286
106.571
106.857
107.143
107.429
107.714
108
108.286
108.571
108.857
109.143
109.429
109.714
110
110.286
110.571
110.857
111.143
111.429
111.714
112
112.286
112.571
112.857
113.143
113.429
113.714
114
114.286
114.571
114.857
115.143
115.429
115.714
116
116.286
116.571
116.857
117.143
117.429
117.714
118
118.286
118.571
118.857
119.143
119.429
119.714
120
120.286
120.571
120.857
121.143
121.429
121.714
122
122.286
122.571
122.857
123.143
123.429
123.714
124
124.286
124.571
124.857
125.143
125.429
125.714
126
126.286
126.571
126.857
127.143
127.429
127.714
128
128.286
128.571
128.857
129.143
129.429
129.714
130
130.286
130.571
130.857
131.143
131.429
131.714
132
132.286
132.571
132.857
133.143
133.429
133.714
134
134.286
134.571
134.857
135.143
135.429
135.714
136
136.286
136.571
136.857
137.143
137.429
137.714
138
138.286
138.571
138.857
139.143
139.429
139.714
140
140.286
140.571
140.857
141.143
141.429
141.714
142
142.286
142.571
142.857
143.143
143.429
143.714
144
144.286
144.571
144.857
145.143
145.429
145.714
146
146.286
146.571
146.857
147.143
147.429
147.714
148
148.286
148.571
148.857
149.143
149.429
149.714
150
150.286
150.571
150.857
151.143
151.429
151.714
152
152.286
152.571
152.857
153.143
153.429
153.714
154
154.286
154.571
154.857
155.143
155.429
155.714
156
156.286
156.571
156.857
157.143
157.429
157.714
158
158.286
158.571
158.857
159.143
159.429
159.714
160
160.286
160.571
160.857
161.143
161.429
161.714
162
162.286
162.571
162.857
163.143
163.429
163.714
164
164.286
164.571
164.857
165.143
165.429
165.714
166
166.286
166.571
166.857
167.143
167.429
167.714
168
168.286
168.571
168.857
169.143
169.429
169.714
170
170.286
170.571
170.857
171.143
171.429
171.714
172
172.286
172.571
172.857
173.143
173.429
173.714
174
174.286
174.571
174.857
175.143
175.429
175.714
176
176.286
176.571
176.857
177.143
177.429
177.714
178
178.286
178.571
178.857
179.143
179.429
179.714
180
180.286
180.571
180.857
181.143
181.429
181.714
182
182.286
182.571
182.857
183.143
183.429
183.714
184
184.286
184.571
184.857
185.143
185.429
185.714
186
186.286
186.571
186.857
187.143
187.429
187.714
188
188.286
188.571
188.857
189.143
189.429
189.714
190
190.286
190.571
190.857
191.143
191.429
191.714
192
192.286
192.571
192.857
193.143
193.429
193.714
194
194.286
194.571
194.857
195.143
195.429
195.714
196
196.286
196.571
196.857
197.143
197.429
197.714
198
198.286
198.571
198.857
199.143
199.429
199.714
200
200.286
200.571
200.857
201.143
201.429
201.714
202
202.286
202.571
202.857
203.143
203.429
203.714
204
204.286
204.571
204.857
205.143
205.429
205.714
206
206.286
206.571
206.857
207.143
207.429
207.714
208
208.286
208.571
208.857
209.143
209.429
209.714
210
210.286
210.571
210.857
211.143
211.429
211.714
212
212.286
212.571
212.857
213.143
213.429
213.714
214
214.286
214.571
214.857
215.143
215.429
215.714
216
216.286
216.571
216.857
217.143
217.429
217.714
218
218.286
218.571
218.857
219.143
219.429
219.714
220
220.286
220.571
220.857
221.143
221.429
221.714
222
222.286
222.571
222.857
223.143
223.429
223.714
224
224.286
224.571
224.857
225.143
225.429
225.714
226
226.286
226.571
226.857
227.143
227.429
227.714
228
228.286
228.571
228.857
229.143
229.429
229.714
230
230.286
230.571
230.857
231.143
231.429
231.714
232
232.286
232.571
232.857
233.143
233.429
233.714
234
234.286
234.571
234.857
235.143
235.429
235.714
236
236.286
236.571
236.857
237.143
237.429
237.714
238
238.286
238.571
238.857
239.143
239.429
239.714
240
240.286
240.571
240.857
241.143
241.429
241.714
242
242.286
242.571
242.857
243.143
243.429
243.714
244
244.286
244.571
244.857
245.143
245.429
245.714
246
246.286
246.571
246.857
247.143
247.429
247.714
248
248.286
248.571
248.857
249.143
249.429
249.714
250
250.286
250.571
250.857
251.143
251.429
251.714
252
252.286
252.571
252.857
253.143
253.429
253.714
254
254.286
254.571
254.857
255.143
255.429
255.714
256
256.286
256.571
256.857
257.143
257.429
257.714
258
258.286
258.571
258.857
259.143
259.429
259.714
260
260.286
260.571
260.857
261.143
261.429
261.714
262
262.286
262.571
262.857
263.143
263.429
263.714
264
264.286
264.571
264.857
265.143
265.429
265.714
266
266.286
266.571
266.857
267.143
267.429
267.714
268
268.286
268.571
268.857
269.143
269.429
269.714
270
270.286
270.571
270.857
271.143
271.429
271.714
272
272.286
272.571
272.857
273.143
273.429
273.714
274
274.286
274.571
274.857
275.143
275.429
275.714
276
276.286
276.571
276.857
277.143
277.429
277.714
278
278.286
278.571
278.857
279.143
279.429
279.714
280
280.286
280.571
280.857
281.143
281.429
281.714
282
282.286
282.571
282.857
283.143
283.429
283.714
284
284.286
284.571
284.857
285.143
285.429
285.714
286
286.286
286.571
286.857
287.143
287.429
287.714
288
288.286
288.571
288.857
289.143
289.429
289.714
290
290.286
290.571
290.857
291.143
291.429
291.714
292
292.286
292.571
292.857
293.143
293.429
293.714
294
294.286
294.571
294.857
295.143
295.429
295.714
296
296.286
296.571
296.857
297.143
297.429
297.714
298
298.286
298.571
298.857
299.143
299.429
299.714
300
300.286
300.571
300.857
301.143
301.429
301.714
302
302.286
302.571
302.857
303.143
303.429
303.714
304
304.286
304.571
304.857
305.143
305.429
305.714
306
306.286
306.571
306.857
307.143
307.429
307.714
308
308.286
308.571
308.857
309.143
309.429
309.714
310
310.286
310.571
310.857
311.143
311.429
311.714
312
312.286
312.571
312.857
313.143
313.429
313.714
314
314.286
314.571
314.857
315.143
315.429
315.714
316
316.286
316.571
316.857
317.143
317.429
317.714
318
318.286
318.571
318.857
319.143
319.429
319.714
320
320.286
320.571
320.857
321.143
321.429
321.714
322
322.286
322.571
322.857
323.143
323.429
323.714
324
324.286
324.571
324.857
325.143
325.429
325.714
326
326.286
326.571
326.857
327.143
327.429
327.714
328
328.286
328.571
328.857
329.143
329.429
329.714
330
330.286
330.571
330.857
331.143
331.429
331.714
332
332.286
332.571
332.857
333.143
333.429
333.714
334
334.286
334.571
334.857
335.143
335.429
335.714
336
336.286
336.571
336.857
337.143
337.429
337.714
338
338.286
338.571
338.857
339.143
339.429
339.714
340
340.286
340.571
340.857
341.143
341.429
341.714
342
342.286
342.571
342.857
343.143
343.429
343.714
344
344.286
344.571
344.857
345.143
345.429
345.714
346
346.286
346.571
346.857
347.143
347.429
347.714
348
348.286
348.571
348.857
349.143
349.429
349.714
350
350.286
350.571
350.857
351.143
351.429
351.714
352
352.286
352.571
352.857
353.143
353.429
353.714
354
354.286
354.571
354.857
355.143
355.429
355.714
356
356.286
356.571
356.857
357.143
357.429
357.714
358
358.286
358.571
358.857
359.143
359.429
359.714
360
360.286
360.571
360.857
361.143
361.429
361.714
362
362.286
362.571
362.857
363.143
363.429
363.714
364
364.286
364.571
364.857
365.143
365.429
365.714
366
366.286
366.571
366.857
367.143
367.429
367.714
368
368.286
368.571
368.857
369.143
369.429
369.714
370
370.286
370.571
370.857
371.143
371.429
371.714
372
372.286
372.571
372.857
373.143
373.429
373.714
374
374.286
374.571
374.857
375.143
375.429
375.714
376
376.286
376.571
376.857
377.143
377.429
377.714
378
378.286
378.571
378.857
[...]
<CellData>
<DataArray Name="h" type="Float32" format="ascii">
14
14
14
14
14
14
14
14
14
14
14
14
14
14
14
14
14
14
14
14
14
14
14
14
14
14
14
14
14
14
14
14
14
14
14
14
14
14
14
14
14
14
14
14
14
14
14
14
14
14
14
14
14
14
14
14
14
14
14
14
14
14
14
14
14
14
14
14
14
14
14
14
14
14
14
14
14
14
14
14
14
14
14
14
14
14
14
14
14
14
14
14
14
14
14
14
14
14
14
14
14
14
14
14
14
14
14
14
14
14
14
14
14
14
14
14
14
14
14
14
14
14
14
14
14
14
14
14
14
14
14
14
14
14
14
14
14
14
14
14
14
14
14
14
14
14
14
14
14
14
14
14
14
14
14
14
14
14
14
14
14
14
14
14
14
14
14
14
14
14
14
14
14
14
14
14
14
14
14
14
14
14
14
14
14
14
14
14
14
14
14
14
14
14
14
14
14
14
14
14
14
14
14
14
14
14
14
14
14
14
14
14
14
14
14
14
14
14
14
14
14
14
14
14
14
14
14
14
14
14
14
13.9999
13.9999
13.9999
13.9999
13.9999
13.9999
13.9999
13.9999
13.9999
13.9999
13.9999
13.9999
13.9998
13.9998
13.9998
13.9997
13.9997
13.9996
13.9996
13.9995
13.9994
13.9992
13.9991
13.9989
13.9987
13.9985
13.9982
13.9978
13.9975
13.997
13.9965
13.9959
13.9952
13.9945
13.9936
13.9926
13.9915
13.9902
13.9888
13.9873
13.9855
13.9836
13.9814
13.9791
13.9765
13.9736
13.9705
13.9671
13.9634
13.9594
13.9551
13.9505
13.9455
13.9402
13.9345
13.9285
13.9221
13.9153
13.9081
13.9005
13.8925
13.8842
13.8754
13.8662
13.8567
13.8467
13.8364
13.8257
13.8145
13.8031
13.7912
13.779
13.7664
13.7534
13.7401
13.7265
13.7126
13.6983
13.6837
13.6688
13.6536
13.6381
13.6223
13.6063
13.59
13.5735
13.5567
13.5396
13.5224
13.5049
13.4872
13.4693
13.4512
13.4329
13.4144
13.3957
13.3769
13.3579
13.3387
13.3194
13.2999
13.2803
13.2605
13.2406
13.2206
13.2004
13.1802
13.1598
13.1393
13.1187
13.0979
13.0771
13.0562
13.0352
13.0141
12.9929
12.9716
12.9503
12.9288
12.9073
12.8857
12.864
12.8423
12.8205
12.7986
12.7767
12.7547
12.7326
12.7105
12.6883
12.666
12.6437
12.6214
12.599
12.5765
12.554
12.5315
12.5089
12.4863
12.4636
12.4408
12.4181
12.3952
12.3724
12.3495
12.3266
12.3036
12.2806
12.2575
12.2344
12.2113
12.1882
12.165
12.1417
12.1185
12.0952
12.0719
12.0485
12.0251
12.0017
11.9783
11.9548
11.9313
11.9078
11.8842
11.8606
11.837
11.8133
11.7897
11.766
11.7422
11.7185
11.6947
11.6709
11.647
11.6232
11.5993
11.5754
11.5514
11.5275
11.5035
11.4795
11.4554
11.4314
11.4073
11.3832
11.3591
11.3349
11.3107
11.2865
11.2623
11.238
11.2138
11.1895
11.1651
11.1408
11.1164
11.092
11.0676
11.0432
11.0187
10.9942
10.9697
10.9452
10.9206
10.8961
10.8715
10.8468
10.8222
10.7975
10.7728
10.7481
10.7234
10.6986
10.6738
10.649
10.6242
10.5993
10.5744
10.5495
10.5246
10.4997
10.4747
10.4497
10.4247
10.3996
10.3746
10.3495
10.3244
10.2992
10.274
10.2489
10.2236
10.1984
10.1731
10.1479
10.1225
10.0972
10.0718
10.0465
10.021
9.99561
9.97014
9.94465
9.91914
9.8936
9.86803
9.84244
9.81682
9.79118
9.76551
9.73981
9.71409
9.68834
9.66256
9.63676
9.61093
9.58508
9.55919
9.53328
9.50734
9.48138
9.45539
9.42937
9.40332
9.37724
9.35114
9.32501
9.29885
9.27266
9.24645
9.2202
9.19393
9.16763
9.14131
9.11495
9.08857
9.06216
9.03572
9.00925
8.98275
8.95622
8.92967
8.90309
8.87648
8.84985
8.82318
8.7965
8.76978
8.74304
8.71627
8.68947
8.66265
8.6358
8.60892
8.58203
8.5551
8.52816
8.50119
8.47419
8.44718
8.42015
8.39309
8.36602
8.33893
8.31182
8.2847
8.25756
8.23041
8.20325
8.17607
8.14889
8.12171
8.09452
8.06733
8.04014
8.01296
7.98578
7.95862
7.93147
7.90433
7.87722
7.85014
7.8231
7.79609
7.76912
7.74221
7.71536
7.68857
7.66185
7.63522
7.60869
7.58225
7.55594
7.52975
7.50371
7.47783
7.45212
7.4266
7.4013
7.37623
7.35141
7.32687
7.30264
7.27873
7.25519
7.23204
7.20932
7.18706
7.16529
7.14406
7.1234
7.10336
7.08397
7.06527
7.04731
7.03013
7.01376
6.99823
6.98358
6.96983
6.957
6.9451
6.93415
6.92413
6.91504
6.90685
6.89954
6.89306
6.88738
6.88245
6.87819
6.87456
6.87149
6.86892
6.86679
6.86503
6.86358
6.86241
6.86145
6.86067
6.86003
6.8595
6.85906
6.85869
6.85836
6.85807
6.85781
6.85757
6.85734
6.85712
6.85691
6.85671
6.85651
6.85632
6.85613
6.85594
6.85576
6.85558
6.85541
6.85524
6.85507
6.85491
6.85475
6.8546
6.85445
6.8543
6.85416
6.85402
6.85389
6.85376
6.85363
6.85351
6.85338
6.85327
6.85315
6.85304
6.85293
6.85282
6.85272
6.85262
6.85252
6.85242
6.85233
6.85224
6.85215
6.85206
6.85197
6.85189
6.85181
6.85173
6.85165
6.85157
6.85149
6.85142
6.85134
6.85127
6.8512
6.85113
6.85106
6.85099
6.85093
6.85086
6.85079
6.85073
6.85067
6.85061
6.85055
6.85049
6.85043
6.85037
6.85032
6.85026
6.85021
6.85015
6.8501
6.85005
6.85
6.84995
6.8499
6.84985
6.8498
6.84975
6.8497
6.84966
6.84961
6.84957
6.84952
6.84948
6.84944
6.84939
6.84935
6.84931
6.84927
6.84922
6.84918
6.84915
6.84911
6.84907
6.84903
6.84899
6.84896
6.84892
6.84888
6.84885
6.84881
6.84877
6.84874
6.84871
6.84867
6.84864
6.84861
6.84857
6.84854
6.84851
6.84848
6.84844
6.84841
6.84838
6.84835
6.84832
6.84829
6.84826
6.84823
6.84821
6.84818
6.84815
6.84812
6.84809
6.84806
6.84804
6.84801
6.84798
6.84796
6.84793
6.8479
6.84787
6.84785
6.84782
6.8478
6.84777
6.84775
6.84772
6.8477
6.84767
6.84765
6.84763
6.8476
6.84758
6.84756
6.84753
6.84751
6.84749
6.84746
6.84744
6.84742
6.84739
6.84737
6.84735
6.84733
6.8473
6.84728
6.84726
6.84724
6.84722
6.8472
6.84718
6.84715
6.84713
6.84711
6.84709
6.84707
6.84705
6.84703
6.84701
6.84699
6.84697
6.84695
6.84693
6.84691
6.8469
6.84688
6.84686
6.84684
6.84682
6.8468
6.84678
6.84676
6.84674
6.84672
6.84671
6.84669
6.84667
6.84665
6.84663
6.84662
6.8466
6.84658
6.84656
6.84655
6.84653
6.84651
6.84649
6.84648
6.84646
6.84644
6.84643
6.84641
6.84639
6.84637
6.84636
6.84634
6.84632
6.84631
6.84629
6.84627
6.84626
6.84624
6.84623
6.84621
6.84619
6.84618
6.84616
6.84615
6.84613
6.84611
6.8461
6.84608
6.84607
6.84605
6.84604
6.84602
6.84601
6.84599
6.84598
6.84596
6.84594
6.84593
6.84591
6.8459
6.84588
6.84587
6.84585
6.84584
6.84582
6.84581
6.84579
6.84578
6.84576
6.84575
6.84573
6.84572
6.8457
6.84569
6.84567
6.84566
6.84564
6.84563
6.84561
6.8456
6.84559
6.84557
6.84556
6.84554
6.84553
6.84551
6.8455
6.84549
6.84547
6.84546
6.84544
6.84543
6.84541
6.8454
6.84538
6.84537
6.84536
6.84534
6.84533
6.84531
6.8453
6.84529
6.84527
6.84526
6.84524
6.84523
6.84522
6.8452
6.84519
6.84517
6.84516
6.84514
6.84513
6.84512
6.8451
6.84509
6.84508
6.84506
6.84505
6.84503
6.84502
6.84501
6.84499
6.84498
6.84496
6.84495
6.84494
6.84492
6.84491
6.8449
6.84488
6.84487
6.84485
6.84484
6.84483
6.84481
6.8448
6.84478
6.84477
6.84476
6.84474
6.84473
6.84471
6.8447
6.84469
6.84467
6.84466
6.84464
6.84463
6.84462
6.8446
6.84459
6.84457
6.84456
6.84455
6.84453
6.84452
6.8445
6.84449
6.84448
6.84446
6.84445
6.84443
6.84442
6.8444
6.84439
6.84437
6.84436
6.84434
6.84433
6.84432
6.8443
6.84429
6.84427
6.84426
6.84424
6.84423
6.84421
6.8442
6.84418
6.84417
6.84416
6.84414
6.84413
6.84411
6.8441
6.84408
6.84407
6.84405
6.84404
6.84402
6.84401
6.84399
6.84398
6.84396
6.84395
6.84393
6.84392
6.8439
6.84389
6.84387
6.84386
6.84384
6.84382
6.84381
6.84379
6.84378
6.84376
6.84375
6.84373
6.84372
6.8437
6.84368
6.84367
6.84365
6.84363
6.84362
6.8436
6.84359
6.84357
6.84355
6.84354
6.84352
6.84351
6.84349
6.84347
6.84346
6.84344
6.84342
6.84341
6.84339
6.84337
6.84336
6.84334
6.84332
6.84331
6.84329
6.84327
6.84325
6.84323
6.84321
6.8432
6.84318
6.84316
6.84315
6.84313
6.84311
6.84309
6.84307
6.84306
6.84304
6.84302
6.843
6.84298
6.84296
6.84294
6.84293
6.84291
6.84289
6.84287
6.84285
6.84283
6.84281
6.84279
6.84277
6.84275
6.84274
6.84272
6.8427
6.84268
6.84266
6.84264
6.84262
6.8426
6.84257
6.84255
6.84253
6.84251
6.84249
6.84247
6.84245
6.84243
6.84241
6.84239
6.84237
6.84234
6.84232
6.8423
6.84227
6.84225
6.84223
6.84221
6.84219
6.84217
6.84215
6.84213
6.8421
6.84207
6.84205
6.84202
6.84199
6.84197
6.84195
6.84192
6.8419
6.84188
6.84186
6.84184
6.84181
6.84179
6.84176
6.84173
6.8417
6.84167
6.84165
6.84163
6.84161
6.84159
6.84156
6.84154
6.84151
6.84147
6.84144
6.8414
6.84137
6.84134
6.84132
6.84129
6.84127
6.84125
6.84122
6.8412
6.84117
6.84113
6.84109
6.84106
6.84102
6.84099
6.84096
6.84094
6.84092
6.84089
6.84087
6.84084
6.8408
6.84075
6.8407
6.84066
6.84062
6.84059
6.84056
6.84053
6.8405
6.84045
6.84035
6.84014
6.83966
6.83849
6.83545
6.82766
6.80769
6.75611
6.62345
6.28993
5.53028
4.26261
3.31449
3.04812
3.00632
3.00081
3.0001
3.00001
3
3
3
3
3
3
3
3
3
3
3
3
3
3
3
3
3
3
3
3
3
3
3
3
3
3
3
3
3
3
3
3
3
3
3
3
3
3
3
3
3
3
3
3
3
3
3
3
3
3
3
3
3
3
3
3
3
3
3
3
3
3
3
3
3
3
3
3
3
3
3
3
3
3
3
3
3
3
3
3
3
3
3
3
3
3
3
3
3
3
3
3
3
3
3
3
3
3
3
3
3
3
3
3
3
3
3
3
3
3
3
3
3
3
3
3
3
3
3
3
3
3
3
3
3
3
3
3
3
3
3
3
3
3
3
3
3
3
3
3
3
3
3
3
3
3
3
3
3
3
3
3
3
3
3
3
3
3
3
3
3
3
3
3
3
3
3
3
3
3
3
3
3
3
3
3
3
3
3
3
3
3
3
3
3
3
3
3
3
3
3
3
3
3
3
3
3
3
3
3
3
3
3
3
3
3
3
3
3
3
3
3
3
3
3
3
3
3
3
3
3
3
3
3
3
3
3
3
3
3
3
3
3
3
3
3
3
3
3
3
3
3
3
3
3
3
3
3
3
3
3
3
3
3
3
3
3
3
3
3
3
3
3
3
3
3
3
3
3
3
3
3
3
3
3
3
3
3
3
3
3
3
3
3
3
3
3
3
3
3
3
3
3
3
3
3
3
3
3
3
3
3
3
3
3
3
3
3
3
3
3
3
3
3
3
3
3
3
3
3
3
3
3
3
3
3
3
3
3
3
3
3
3
3
3
3
3
3
3
3
3
3
3
3
3
3
3
3
3
3
3
3
3
3
3
3
3
3
3
3
3
3
3
3
3
3
3
3
3
3
3
3
3
3
3
3
3
3
3
3
3
3
3
3
3
3
3
3
3
3
3
3
3
3
3
3
3
3
3
3
3
3
3
3
3
3
3
3
3
3
3
3
3
3
3
3
3
3
3
3
3
3
3
3
3
3
3
3
3
3
3
3
3
3
3
3
3
3
3
3
3
3
3
3
3
3
3
3
3
3
3
3
3
3
3
3
3
3
3
3
3
3
3
3
3
3
3
3
3
3
3
3
3
3
3
3
3
3
3
3
3
3
3
3
3
3
3
3
3
3
3
3
3
3
3
3
3
3
3
3
3
3
3
3
3
3
3
3
3
3
3
3
3
3
3
3
3
3
3
3
3
3
3
3
3
3
3
3
3
3
3
3
3
3
3
3
3
3
3
3
3
3
3
3
3
3
3
3
3
3
3
3
3
3
3
3
3
3
3
3
3
3
3
3
3
3
3
3
3
3
3
3
3
3
3
3
3
3
3
3
3
3
3
3
3
3
3
3
3
3
3
3
3
3
3
3
3
3
3
3
3
3
3
3
3
3
3
3
3
3
3
3
3
3
3
3
3
3
3
3
3
3
3
3
3
3
3
3
3
3
3
3
3
3
3
3
3
3
3
3
3
3
3
3
3
3
3
3
3
3
3
3
3
3
3
3
3
3
3
3
3
3
3
3
3
3
3
3
3
3
3
3
3
3
3
3
3
3
3
3
3
3
3
3
3
3
3
3
3
3
3
3
3
3
3
3
3
3
3
3
3
3
3
3
3
3
3
3
3
3
3
3
3
3
3
3
3
3
3
3
3
3
3
3
3
3
3
3
3
3
3
3
3
3
3
3
3
3
3
3
3
3
3
3
3
3
3
3
3
3
3
3
3
3
3
3
3
3
3
3
3
3
3
3
3
3
3
3
3
3
3
3
3
3
3
3
3
3
3
3
3
3
3
3
3
3
3
3
3
3
3
3
3
3
3
3
3
3
3
3
3
3
3
3
3
3
3
3
3
3
3
3
3
3
3
3
3
3
3
3
3
3
3
3
3
3
3
3
3
3
3
3
3
3
3
3
3
3
3
3
3
3
3
3
3
3
3
3
3
3
3
3
3
3
3
3
3
3
3
3
3
3
3
3
3
3
3
3
3
3
3
3
3
3
3
3
3
3
3
3
3
3
3
3
3
3
3
3
3
3
3
3
3
3
3
3
3
3
3
3
3
3
3
3
3
3
3
3
3
3
3
3
3
3
3
3
3
3
3
3
3
3
3
3
3
3
3
3
3
3
3
3
3
3
3
3
3
3
3
3
3
3
3
3
3
3
3
3
3
3
3
3
3
3
3
3
3
3
3
3
3
3
3
3
3
3
3
3
3
3
3
3
3
3
3
3
3
3
3
3
3
3
3
3
3
3
3
3
3
3
3
3
3
3
3
3
3
3
3
3
3
3
3
3
3
3
3
3
3
3
3
3
3
3
3
3
3
3
3
3
3
3
3
3
3
3
3
3
3
3
3
3
3
3
3
3
3
3
3
3
3
3
3
3
3
3
3
3
3
3
3
3
3
3
3
3
3
3
3
3
3
3
3
3
3
3
3
3
3
3
3
3
3
3
3
3
3
3
3
3
3
3
3
3
3
3
3
3
3
3
3
3
3
3
3
3
3
3
3
3
3
3
3
3
3
3
3
3
3
3
3
3
3
3
3
3
3
3
3
3
3
3
3
3
3
3
3
3
3
3
3
3
3
3
3
3
3
3
3
3
3
3
3
3
3
3
3
3
3
3
3
3
3
3
3
3
3
3
3
3
3
3
3
3
3
3
3
3
3
3
3
3
3
3
3
3
3
3
3
3
3
3
3
3
3
3
3
3
3
3
3
3
3
3
3
3
3
3
3
3
3
3
3
3
3
3
3
3
3
3
3
3
3
3
3
3
3
3
3
3
3
3
3
3
3
3
3
3
3
3
3
3
3
3
3
3
3
3
3
3
3
3
3
3
3
3
3
3
3
3
3
3
3
3
3
3
3
3
3
3
3
3
3
3
3
3
3
3
3
3
3
3
3
3
3
3
3
3
3
3
3
3
3
3
3
3
3
3
3
3
3
3
3
3
3
3
3
3
3
3
3
3
3
3
3
3
3
3
3
3
3
3
3
3
3
3
3
3
3
3
3
3
3
3
3
3
3
3
3
3
3
3
3
3
3
3
3
3
3
3
3
3
3
3
3
3
3
3
3
3
3
3
3
3
3
3
3
3
3
3
3
3
3
3
3
3
3
3
3
3
3
3
3
3
3
3
3
3
3
3
3
3
3
3
3
3
3
3
3
3
3
3
3
3
3
3
3
3
3
3
3
3
3
3
3
3
3
3
3
3
3
3
3
3
3
3
3
3
3
3
3
3
3
3
3
3
3
3
3
3
3
3
3
3
3
3
3
3
3
3
3
3
3
3
3
3
3
3
3
3
3
3
3
3
3
3
3
3
3
3
3
3
3
3
3
3
3
3
3
3
3
3
3
3
3
3
3
3
3
3
3
3
3
3
3
3
3
3
3
3
3
3
3
3
3
3
3
3
3
3
3
3
3
3
3
3
3
3
3
3
3
3
3
3
3
3
3
3
3
3
3
3
3
3
3
3
3
3
3
3
3
3
3
3
3
3
3
3
3
3
3
3
3
3
3
3
3
3
3
3
3
3
3
3
3
3
3
3
3
3
3
3
3
3
3
3
3
3
3
3
3
3
3
3
3
3
3
3
3
3
3
3
3
3
3
3
3
3
3
3
3
3
3
3
3
3
3
3
3
3
3
3
3
3
3
3
3
3
3
3
3
3
3
3
3
3
3
3
3
3
3
3
3
3
3
3
3
3
3
3
3
3
3
3
3
3
3
3
3
3
3
3
3
3
3
3
3
3
3
3
3
3
3
3
3
3
3
3
3
3
3
3
3
3
3
3
3
3
3
3
3
3
3
3
3
3
3
3
3
3
3
3
3
3
3
3
3
3
3
3
3
3
3
3
3
3
3
3
3
3
3
3
3
3
3
3
3
3
3
3
3
3
3
3
3
3
3
3
3
3
3
3
3
3
3
3
3
3
3
3
3
3
3
3
3
3
3
3
3
3
3
3
3
3
3
3
3
3
3
3
3
3
3
3
3
3
3
3
3
3
3
3
3
3
3
3
3
3
3
3
3
3
3
3
3
3
3
3
3
3
3
3
3
3
3
3
3
3
3
3
3
3
3
3
3
3
3
3
3
3
3
3
3
3
3
3
3
3
3
3
3
3
3
3
3
3
3
3
3
3
3
3
3
3
3
3
3
3
3
3
3
3
3
3
3
3
3
3
3
3
3
3
3
3
3
3
3
3
3
3
3
3
3
3
3
3
3
3
3
3
3
3
3
3
3
3
3
3
3
3
3
3
3
3
3
3
3
3
3
3
3
3
3
3
3
3
3
3
3
3
3
3
3
3
3
3
3
3
3
3
3
3
3
3
3
3
3
3
3
3
3
3
3
3
3
3
3
3
3
3
3
3
3
3
3
3
3
3
3
3
3
3
3
3
3
3
3
3
3
3
3
3
3
3
3
3
3
3
3
3
3
3
3
3
3
3
3
3
3
3
3
3
3
3
3
3
3
3
3
3
3
3
3
3
3
3
3
3
3
3
3
3
3
3
3
3
3
3
3
3
3
3
3
3
3
3
3
3
3
3
3
3
3
3
3
3
3
3
3
3
3
3
3
3
3
3
3
3
3
3
3
3
3
3
3
3
3
3
3
3
3
3
3
3
3
3
3
3
3
3
3
3
3
3
3
3
3
3
3
3
3
3
3
3
3
3
3
3
3
3
3
3
3
3
3
3
3
3
3
3
3
3
3
3
3
3
3
3
3
3
3
3
3
3
3
3
3
3
3
3
3
3
3
3
3
3
3
3
3
3
3
3
3
3
3
3
3
3
3
3
3
3
3
3
3
3
3
3
3
3
3
3
3
3
3
3
3
3
3
3
3
3
3
3
3
3
3
3
3
3
3
3
3
3
3
3
3
3
3
3
3
3
3
3
3
3
3
3
3
3
3
3
3
3
3
3
3
3
3
3
3
3
3
3
3
3
3
3
3
3
3
3
3
3
3
3
3
3
3
3
3
3
3
3
3
3
3
3
3
3
3
3
3
3
3
3
3
3
3
3
3
3
3
3
3
3
3
3
3
3
3
3
3
3
3
3
3
3
3
3
3
3
3
3
3
3
3
3
3
3
3
3
3
3
3
3
3
3
3
3
3
3
3
3
3
3
3
3
3
3
3
3
3
3
3
3
3
3
3
3
3
3
3
3
3
3
3
3
3
3
3
3
3
3
3
3
3
3
3
3
3
3
3
3
3
3
3
3
3
3
3
3
3
3
3
3
3
3
3
3
3
3
3
3
3
3
3
3
3
3
3
3
3
3
3
3
3
3
3
3
3
3
3
3
3
3
3
</DataArray>
<DataArray Name="hu" type="Float32" format="ascii">
0
0
0
0
0
0
0
0
0
0
0
0
0
0
0
0
0
0
0
0
0
0
0
0
0
0
0
0
0
0
0
0
0
0
0
0
0
0
0
0
0
0
0
0
0
0
0
0
0
0
0
0
0
0
0
0
0
0
0
0
0
0
0
0
0
0
0
0
0
0
0
0
0
0
0
0
0
0
0
0
0
0
0
0
0
0
0
0
0
0
0
0
0
0
0
0
0
0
0
0
0
0
0
0
0
0
0
0
0
0
0
0
0
0
0
0
0
0
0
0
0
0
0
0
0
0
0
0
0
0
0
0
0
0
0
0
0
0
0
0
0
0
0
0
0
0
0
0
0
0
0
0
0
0
0
0
0
0
0
0
0
0
0
0
0
0
0
0
0
0
0
1.4013e-45
2.10195e-44
1.97583e-43
1.80908e-42
1.64751e-41
1.49614e-40
1.35577e-39
1.22737e-38
1.11143e-37
1.00801e-36
9.16584e-36
8.3607e-35
7.64907e-34
7.01265e-33
6.43301e-32
5.89413e-31
5.38438e-30
4.8975e-29
4.43263e-28
3.99326e-27
3.58568e-26
3.21725e-25
2.89464e-24
2.62222e-23
2.40075e-22
2.22681e-21
2.09312e-20
1.98948e-19
1.90409e-18
1.825e-17
1.7413e-16
1.6444e-15
1.5302e-14
1.40032e-13
1.25963e-12
1.11225e-11
9.69002e-11
8.44052e-10
7.21783e-09
6.09282e-08
4.91285e-07
5.44992e-06
1.93638e-05
3.98893e-05
6.50293e-05
8.92172e-05
0.000116813
0.000148252
0.000178214
0.000208023
0.000235338
0.000263808
0.000294501
0.000326276
0.000359181
0.000394885
0.000426777
0.000452973
0.000482375
0.000514065
0.000546487
0.000578764
0.000607033
0.000638977
0.000672741
0.000719222
0.000784827
0.000862211
0.00096441
0.00109582
0.0012573
0.00146597
0.00173429
0.00206397
0.00246297
0.00294841
0.00353918
0.0042522
0.00511832
0.00616086
0.00740549
0.00888775
0.0106427
0.0127109
0.0151427
0.0179989
0.0213393
0.0252273
0.0297378
0.0349507
0.0409481
0.0478336
0.0557154
0.0647037
0.0749172
0.0864757
0.0995188
0.1142
0.130657
0.149027
0.169485
0.192196
0.217308
0.244993
0.275423
0.308755
0.345153
0.384773
0.427772
0.474298
0.52449
0.578487
0.636413
0.698371
0.764465
0.83479
0.909422
0.988425
1.07185
1.15972
1.25209
1.34895
1.45031
1.55616
1.66646
1.78118
1.90027
2.0237
2.15139
2.28327
2.41925
2.55925
2.70318
2.85093
3.00241
3.15752
3.31613
3.47816
3.64346
3.81194
3.98349
4.15801
4.33536
4.51543
4.69812
4.88333
5.07093
5.26083
5.45294
5.64713
5.84332
6.0414
6.2413
6.44292
6.64616
6.85094
7.05719
7.26482
7.47376
7.68393
7.89526
8.10769
8.32115
8.53557
8.7509
8.96708
9.18404
9.40174
9.62011
9.83912
10.0587
10.2789
10.4995
10.7206
10.9421
11.164
11.3862
11.6088
11.8316
12.0546
12.2779
12.5013
12.7249
12.9486
13.1724
13.3963
13.6202
13.8442
14.0681
14.292
14.5159
14.7397
14.9634
15.1871
15.4106
15.634
15.8573
16.0803
16.3033
16.526
16.7485
16.9708
17.1929
17.4147
17.6363
17.8576
18.0786
18.2994
18.5198
18.74
18.9598
19.1793
19.3985
19.6174
19.8359
20.054
20.2718
20.4892
20.7063
20.9229
21.1392
21.3551
21.5706
21.7856
22.0003
22.2145
22.4284
22.6418
22.8547
23.0672
23.2793
23.491
23.7021
23.9129
24.1231
24.333
24.5423
24.7512
24.9596
25.1676
25.375
25.582
25.7885
25.9946
26.2001
26.4051
26.6096
26.8137
27.0172
27.2203
27.4228
27.6248
27.8264
28.0274
28.2279
28.4278
28.6273
28.8262
29.0247
29.2226
29.4199
29.6168
29.8131
30.0089
30.2041
30.3989
30.5931
30.7867
30.9798
31.1724
31.3645
31.556
31.7469
31.9373
32.1272
32.3165
32.5053
32.6935
32.8812
33.0683
33.2549
33.4409
33.6264
33.8113
33.9956
34.1794
34.3627
34.5453
34.7275
34.909
35.09
35.2704
35.4503
35.6296
35.8084
35.9865
36.1641
36.3412
36.5176
36.6936
36.8689
37.0436
37.2178
37.3914
37.5645
37.737
37.9089
38.0802
38.2509
38.4211
38.5907
38.7597
38.9281
39.0959
39.2632
39.4298
39.5959
39.7614
39.9263
40.0907
40.2544
40.4176
40.5801
40.7421
40.9035
41.0643
41.2245
41.3841
41.5431
41.7015
41.8593
42.0165
42.1731
42.3291
42.4846
42.6394
42.7935
42.9471
43.1001
43.2525
43.4042
43.5554
43.7059
43.8558
44.0051
44.1537
44.3017
44.4491
44.5959
44.7421
44.8876
45.0324
45.1767
45.3203
45.4632
45.6055
45.7471
45.8881
46.0284
46.1681
46.3071
46.4454
46.583
46.7199
46.8562
46.9918
47.1266
47.2608
47.3942
47.5269
47.6589
47.7901
47.9206
48.0503
48.1793
48.3075
48.4349
48.5615
48.6873
48.8122
48.9363
49.0595
49.1819
49.3033
49.4239
49.5435
49.6621
49.7797
49.8963
50.0119
50.1264
50.2398
50.352
50.463
50.5728
50.6814
50.7886
50.8944
50.9988
51.1017
51.2031
51.3028
51.4008
51.4971
51.5914
51.6839
51.7742
51.8625
51.9484
52.0321
52.1132
52.1918
52.2677
52.3407
52.4109
52.478
52.542
52.6027
52.6601
52.7141
52.7646
52.8116
52.8551
52.8951
52.9316
52.9647
52.9945
53.021
53.0445
53.0651
53.083
53.0984
53.1116
53.1227
53.132
53.1397
53.1461
53.1513
53.1555
53.159
53.1618
53.164
53.1659
53.1674
53.1687
53.1698
53.1708
53.1717
53.1725
53.1732
53.1739
53.1746
53.1753
53.1759
53.1765
53.1772
53.1777
53.1783
53.1789
53.1794
53.18
53.1805
53.181
53.1815
53.182
53.1825
53.1829
53.1834
53.1838
53.1842
53.1846
53.185
53.1854
53.1857
53.1861
53.1864
53.1868
53.1871
53.1874
53.1877
53.188
53.1883
53.1885
53.1888
53.1891
53.1893
53.1896
53.1898
53.19
53.1902
53.1905
53.1907
53.1909
53.1911
53.1913
53.1915
53.1916
53.1918
53.192
53.1922
53.1923
53.1925
53.1927
53.1928
53.193
53.1931
53.1933
53.1934
53.1936
53.1937
53.1938
53.1939
53.1941
53.1942
53.1943
53.1944
53.1945
53.1946
53.1947
53.1948
53.1949
53.195
53.1951
53.1952
53.1953
53.1954
53.1955
53.1955
53.1956
53.1957
53.1958
53.1959
53.1959
53.196
53.1961
53.1961
53.1962
53.1962
53.1963
53.1963
53.1964
53.1964
53.1965
53.1966
53.1966
53.1967
53.1967
53.1967
53.1968
53.1968
53.1968
53.1969
53.1969
53.1969
53.197
53.197
53.197
53.1971
53.1971
53.1971
53.1971
53.1971
53.1972
53.1972
53.1972
53.1972
53.1972
53.1972
53.1972
53.1972
53.1972
53.1973
53.1973
53.1973
53.1973
53.1973
53.1973
53.1973
53.1973
53.1973
53.1973
53.1973
53.1973
53.1973
53.1973
53.1973
53.1973
53.1972
53.1972
53.1972
53.1972
53.1972
53.1972
53.1972
53.1972
53.1971
53.1971
53.1971
53.1971
53.1971
53.1971
53.197
53.197
53.197
53.197
53.1969
53.1969
53.1969
53.1969
53.1968
53.1968
53.1968
53.1967
53.1967
53.1967
53.1967
53.1966
53.1966
53.1966
53.1965
53.1965
53.1964
53.1964
53.1964
53.1963
53.1963
53.1963
53.1962
53.1962
53.1962
53.1961
53.1961
53.196
53.196
53.1959
53.1959
53.1958
53.1958
53.1957
53.1957
53.1956
53.1956
53.1955
53.1955
53.1954
53.1954
53.1953
53.1953
53.1952
53.1952
53.1951
53.195
53.195
53.1949
53.1949
53.1948
53.1947
53.1947
53.1946
53.1946
53.1945
53.1944
53.1944
53.1943
53.1943
53.1942
53.1941
53.1941
53.194
53.1939
53.1938
53.1938
53.1937
53.1936
53.1935
53.1935
53.1934
53.1933
53.1932
53.1932
53.1931
53.193
53.1929
53.1929
53.1928
53.1927
53.1926
53.1926
53.1925
53.1924
53.1923
53.1922
53.1922
53.1921
53.192
53.1919
53.1918
53.1917
53.1916
53.1915
53.1914
53.1914
53.1913
53.1912
53.1911
53.191
53.1909
53.1908
53.1907
53.1906
53.1905
53.1904
53.1903
53.1902
53.1901
53.19
53.1899
53.1898
53.1897
53.1896
53.1895
53.1894
53.1893
53.1892
53.1891
53.189
53.1889
53.1888
53.1887
53.1886
53.1885
53.1884
53.1883
53.1881
53.188
53.1879
53.1878
53.1877
53.1876
53.1874
53.1873
53.1872
53.1871
53.187
53.1869
53.1867
53.1866
53.1865
53.1864
53.1863
53.1861
53.186
53.1859
53.1857
53.1856
53.1855
53.1854
53.1852
53.1851
53.185
53.1848
53.1847
53.1846
53.1844
53.1843
53.1842
53.184
53.1839
53.1837
53.1836
53.1835
53.1833
53.1832
53.183
53.1829
53.1827
53.1826
53.1825
53.1823
53.1822
53.182
53.1819
53.1817
53.1816
53.1814
53.1813
53.1811
53.1809
53.1808
53.1806
53.1805
53.1803
53.1801
53.18
53.1798
53.1796
53.1795
53.1793
53.1791
53.179
53.1788
53.1786
53.1785
53.1783
53.1781
53.1779
53.1778
53.1776
53.1774
53.1772
53.177
53.1769
53.1767
53.1765