<?xml version="1.0"?>
<VTKFile type="RectilinearGrid">
<RectilinearGrid WholeExtent="0 3500 0 0 0 0">
<Piece Extent="0 3500 0 0 0 0">
<Coordinates>
<DataArray type="Float32" format="ascii">
0
0.285714
0.571429
0.857143
1.14286
1.42857
1.71429
2
2.28571
2.57143
2.85714
3.14286
3.42857
3.71429
4
4.28571
4.57143
4.85714
5.14286
5.42857
5.71429
6
6.28571
6.57143
6.85714
7.14286
7.42857
7.71429
8
8.28572
8.57143
8.85714
9.14286
9.42857
9.71429
10
10.2857
10.5714
10.8571
11.1429
11.4286
11.7143
12
12.2857
12.5714
12.8571
13.1429
13.4286
13.7143
14
14.2857
14.5714
14.8571
15.1429
15.4286
15.7143
16
16.2857
16.5714
16.8571
17.1429
17.4286
17.7143
18
18.2857
18.5714
18.8571
19.1429
19.4286
19.7143
20
20.2857
20.5714
20.8571
21.1429
21.4286
21.7143
22
22.2857
22.5714
22.8571
23.1429
23.4286
23.7143
24
24.2857
24.5714
24.8571
25.1429
25.4286
25.7143
26
26.2857
26.5714
26.8571
27.1429
27.4286
27.7143
28
28.2857
28.5714
28.8571
29.1429
29.4286
29.7143
30
30.2857
30.5714
30.8571
31.1429
31.4286
31.7143
32
32.2857
32.5714
32.8571
33.1429
33.4286
33.7143
34
34.2857
34.5714
34.8571
35.1429
35.4286
35.7143
36
36.2857
36.5714
36.8571
37.1429
37.4286
37.7143
38
38.2857
38.5714
38.8571
39.1429
39.4286
39.7143
40
40.2857
40.5714
40.8571
41.1429
41.4286
41.7143
42
42.2857
42.5714
42.8571
43.1429
43.4286
43.7143
44
44.2857
44.5714
44.8571
45.1429
45.4286
45.7143
46
46.2857
46.5714
46.8571
47.1429
47.4286
47.7143
48
48.2857
48.5714
48.8571
49.1429
49.4286
49.7143
50
50.2857
50.5714
50.8571
51.1429
51.4286
51.7143
52
52.2857
52.5714
52.8571
53.1429
53.4286
53.7143
54
54.2857
54.5714
54.8571
55.1429
55.4286
55.7143
56
56.2857
56.5714
56.8571
57.1429
57.4286
57.7143
58
58.2857
58.5714
58.8571
59.1429
59.4286
59.7143
60
60.2857
60.5714
60.8571
61.1429
61.4286
61.7143
62
62.2857
62.5714
62.8571
63.1429
63.4286
63.7143
64
64.2857
64.5714
64.8571
65.1429
65.4286
65.7143
66
66.2857
66.5714
66.8571
67.1429
67.4286
67.7143
68
68.2857
68.5714
68.8571
69.1429
69.4286
69.7143
70
70.2857
70.5714
70.8571
71.1429
71.4286
71.7143
72
72.2857
72.5714
72.8571
73.1429
73.4286
73.7143
74
74.2857
74.5714
74.8571
75.1429
75.4286
75.7143
76
76.2857
76.5714
76.8571
77.1429
77.4286
77.7143
78
78.2857
78.5714
78.8571
79.1429
79.4286
79.7143
80
80.2857
80.5714
80.8571
81.1429
81.4286
81.7143
82
82.2857
82.5714
82.8571
83.1429
83.4286
83.7143
84
84.2857
84.5714
84.8571
85.1429
85.4286
85.7143
86
86.2857
86.5714
86.8571
87.1429
87.4286
87.7143
88
88.2857
88.5714
88.8571
89.1429
89.4286
89.7143
90
90.2857
90.5714
90.8571
91.1429
91.4286
91.7143
92
92.2857
92.5714
92.8571
93.1429
93.4286
93.7143
94
94.2857
94.5714
94.8571
95.1429
95.4286
95.7143
96
96.2857
96.5714
96.8571
97.1429
97.4286
97.7143
98
98.2857
98.5714
98.8571
99.1429
99.4286
99.7143
100
100.286
100.571
100.857
101.143
101.429
101.714
102
102.286
102.571
102.857
103.143
103.429
103.714
104
104.286
104.571
104.857
105.143
105.429
105.714
106
106.286
106.571
106.857
107.143
107.429
107.714
108
108.286
108.571
108.857
109.143
109.429
109.714
110
110.286
110.571
110.857
111.143
111.429
111.714
112
112.286
112.571
112.857
113.143
113.429
113.714
114
114.286
114.571
114.857
115.143
115.429
115.714
116
116.286
116.571
116.857
117.143
117.429
117.714
118
118.286
118.571
118.857
119.143
119.429
119.714
120
120.286
120.571
120.857
121.143
121.429
121.714
122
122.286
122.571
122.857
123.143
123.429
123.714
124
124.286
124.571
124.857
125.143
125.429
125.714
126
126.286
126.571
126.857
127.143
127.429
127.714
128
128.286
128.571
128.857
129.143
129.429
129.714
130
130.286
130.571
130.857
131.143
131.429
131.714
132
132.286
132.571
132.857
133.143
133.429
133.714
134
134.286
134.571
134.857
135.143
135.429
135.714
136
136.286
136.571
136.857
137.143
137.429
137.714
138
138.286
138.571
138.857
139.143
139.429
139.714
140
140.286
140.571
140.857
141.143
141.429
141.714
142
142.286
142.571
142.857
143.143
143.429
143.714
144
144.286
144.571
144.857
145.143
145.429
145.714
146
146.286
146.571
146.857
147.143
147.429
147.714
148
148.286
148.571
148.857
149.143
149.429
149.714
150
150.286
150.571
150.857
151.143
151.429
151.714
152
152.286
152.571
152.857
153.143
153.429
153.714
154
154.286
154.571
154.857
155.143
155.429
155.714
156
156.286
156.571
156.857
157.143
157.429
157.714
158
158.286
158.571
158.857
159.143
159.429
159.714
160
160.286
160.571
160.857
161.143
161.429
161.714
162
162.286
162.571
162.857
163.143
163.429
163.714
164
164.286
164.571
164.857
165.143
165.429
165.714
166
166.286
166.571
166.857
167.143
167.429
167.714
168
168.286
168.571
168.857
169.143
169.429
169.714
170
170.286
170.571
170.857
171.143
171.429
171.714
172
172.286
172.571
172.857
173.143
173.429
173.714
174
174.286
174.571
174.857
175.143
175.429
175.714
176
176.286
176.571
176.857
177.143
177.429
177.714
178
178.286
178.571
178.857
179.143
179.429
179.714
180
180.286
180.571
180.857
181.143
181.429
181.714
182
182.286
182.571
182.857
183.143
183.429
183.714
184
184.286
184.571
184.857
185.143
185.429
185.714
186
186.286
186.571
186.857
187.143
187.429
187.714
188
188.286
188.571
188.857
189.143
189.429
189.714
190
190.286
190.571
190.857
191.143
191.429
191.714
192
192.286
192.571
192.857
193.143
193.429
193.714
194
194.286
194.571
194.857
195.143
195.429
195.714
196
196.286
196.571
196.857
197.143
197.429
197.714
198
198.286
198.571
198.857
199.143
199.429
199.714
200
200.286
200.571
200.857
201.143
201.429
201.714
202
202.286
202.571
202.857
203.143
203.429
203.714
204
204.286
204.571
204.857
205.143
205.429
205.714
206
206.286
206.571
206.857
207.143
207.429
207.714
208
208.286
208.571
208.857
209.143
209.429
209.714
210
210.286
210.571
210.857
211.143
211.429
211.714
212
212.286
212.571
212.857
213.143
213.429
213.714
214
214.286
214.571
214.857
215.143
215.429
215.714
216
216.286
216.571
216.857
217.143
217.429
217.714
218
218.286
218.571
218.857
219.143
219.429
219.714
220
220.286
220.571
220.857
221.143
221.429
221.714
222
222.286
222.571
222.857
223.143
223.429
223.714
224
224.286
224.571
224.857
225.143
225.429
225.714
226
226.286
226.571
226.857
227.143
227.429
227.714
228
228.286
228.571
228.857
229.143
229.429
229.714
230
230.286
230.571
230.857
231.143
231.429
231.714
232
232.286
232.571
232.857
233.143
233.429
233.714
234
234.286
234.571
234.857
235.143
235.429
235.714
236
236.286
236.571
236.857
237.143
237.429
237.714
238
238.286
238.571
238.857
239.143
239.429
239.714
240
240.286
240.571
240.857
241.143
241.429
241.714
242
242.286
242.571
242.857
243.143
243.429
243.714
244
244.286
244.571
244.857
245.143
245.429
245.714
246
246.286
246.571
246.857
247.143
247.429
247.714
248
248.286
248.571
248.857
249.143
249.429
249.714
250
250.286
250.571
250.857
251.143
251.429
251.714
252
252.286
252.571
252.857
253.143
253.429
253.714
254
254.286
254.571
254.857
255.143
255.429
255.714
256
256.286
256.571
256.857
257.143
257.429
257.714
258
258.286
258.571
258.857
259.143
259.429
259.714
260
260.286
260.571
260.857
261.143
261.429
261.714
262
262.286
262.571
262.857
263.143
263.429
263.714
264
264.286
264.571
264.857
265.143
265.429
265.714
266
266.286
266.571
266.857
267.143
267.429
267.714
268
268.286
268.571
268.857
269.143
269.429
269.714
270
270.286
270.571
270.857
271.143
271.429
271.714
272
272.286
272.571
272.857
273.143
273.429
273.714
274
274.286
274.571
274.857
275.143
275.429
275.714
276
276.286
276.571
276.857
277.143
277.429
277.714
278
278.286
278.571
278.857
279.143
279.429
279.714
280
280.286
280.571
280.857
281.143
281.429
281.714
282
282.286
282.571
282.857
283.143
283.429
283.714
284
284.286
284.571
284.857
285.143
285.429
285.714
286
286.286
286.571
286.857
287.143
287.429
287.714
288
288.286
288.571
288.857
289.143
289.429
289.714
290
290.286
290.571
290.857
291.143
291.429
291.714
292
292.286
292.571
292.857
293.143
293.429
293.714
294
294.286
294.571
294.857
295.143
295.429
295.714
296
296.286
296.571
296.857
297.143
297.429
297.714
298
298.286
298.571
298.857
299.143
299.429
299.714
300
300.286
300.571
300.857
301.143
301.429
301.714
302
302.286
302.571
302.857
303.143
303.429
303.714
304
304.286
304.571
304.857
305.143
305.429
305.714
306
306.286
306.571
306.857
307.143
307.429
307.714
308
308.286
308.571
308.857
309.143
309.429
309.714
310
310.286
310.571
310.857
311.143
311.429
311.714
312
312.286
312.571
312.857
313.143
313.429
313.714
314
314.286
314.571
314.857
315.143
315.429
315.714
316
316.286
316.571
316.857
317.143
317.429
317.714
318
318.286
318.571
318.857
319.143
319.429
319.714
320
320.286
320.571
320.857
321.143
321.429
321.714
322
322.286
322.571
322.857
323.143
323.429
323.714
324
324.286
324.571
324.857
325.143
325.429
325.714
326
326.286
326.571
326.857
327.143
327.429
327.714
328
328.286
328.571
328.857
329.143
329.429
329.714
330
330.286
330.571
330.857
331.143
331.429
331.714
332
332.286
332.571
332.857
333.143
333.429
333.714
334
334.286
334.571
334.857
335.143
335.429
335.714
336
336.286
336.571
336.857
337.143
337.429
337.714
338
338.286
338.571
338.857
339.143
339.429
339.714
340
340.286
340.571
340.857
341.143
341.429
341.714
342
342.286
342.571
342.857
343.143
343.429
343.714
344
344.286
344.571
344.857
345.143
345.429
345.714
346
346.286
346.571
346.857
347.143
347.429
347.714
348
348.286
348.571
348.857
349.143
349.429
349.714
350
350.286
350.571
350.857
351.143
351.429
351.714
352
352.286
352.571
352.857
353.143
353.429
353.714
354
354.286
354.571
354.857
355.143
355.429
355.714
356
356.286
356.571
356.857
357.143
357.429
357.714
358
358.286
358.571
358.857
359.143
359.429
359.714
360
360.286
360.571
360.857
361.143
361.429
361.714
362
362.286
362.571
362.857
363.143
363.429
363.714
364
364.286
364.571
364.857
365.143
365.429
365.714
366
366.286
366.571
366.857
367.143
367.429
367.714
368
368.286
368.571
368.857
369.143
369.429
369.714
370
370.286
370.571
370.857
371.143
371.429
371.714
372
372.286
372.571
372.857
373.143
373.429
373.714
374
374.286
374.571
374.857
375.143
375.429
375.714
376
376.286
376.571
376.857
377.143
377.429
377.714
378
378.286
378.571
378.857
[...]
<CellData>
<DataArray Name="h" type="Float32" format="ascii">
7.60866
7.60291
7.59715
7.59139
7.58564
7.57988
7.57412
7.56836
7.56259
7.55683
7.55107
7.5453
7.53954
7.53377
7.528
7.52224
7.51647
7.5107
7.50493
7.49916
7.49339
7.48762
7.48185
7.47607
7.4703
7.46453
7.45876
7.45298
7.44721
7.44144
7.43566
7.42989
7.42412
7.41834
7.41257
7.4068
7.40103
7.39526
7.38949
7.38372
7.37795
7.37218
7.36641
7.36064
7.35488
7.34911
7.34335
7.33759
7.33183
7.32607
7.32032
7.31456
7.30881
7.30306
7.29731
7.29156
7.28582
7.28008
7.27434
7.26861
7.26287
7.25714
7.25142
7.2457
7.23998
7.23427
7.22856
7.22285
7.21715
7.21145
7.20576
7.20008
7.19439
7.18872
7.18305
7.17739
7.17173
7.16608
7.16044
7.1548
7.14917
7.14355
7.13794
7.13234
7.12674
7.12116
7.11558
7.11002
7.10446
7.09892
7.09338
7.08786
7.08235
7.07685
7.07137
7.0659
7.06044
7.055
7.04957
7.04416
7.03877
7.03339
7.02803
7.02269
7.01736
7.01206
7.00678
7.00151
6.99627
6.99105
6.98586
6.98069
6.97554
6.97042
6.96533
6.96027
6.95523
6.95022
6.94525
6.9403
6.93539
6.93051
6.92567
6.92086
6.9161
6.91137
6.90668
6.90203
6.89742
6.89286
6.88834
6.88387
6.87945
6.87507
6.87075
6.86648
6.86226
6.8581
6.854
6.84995
6.84596
6.84203
6.83817
6.83437
6.83063
6.82696
6.82336
6.81983
6.81637
6.81298
6.80966
6.80642
6.80326
6.80017
6.79716
6.79423
6.79137
6.7886
6.78591
6.78329
6.78077
6.77832
6.77595
6.77367
6.77147
6.76935
6.76731
6.76536
6.76348
6.76169
6.75997
6.75833
6.75677
6.75529
6.75388
6.75254
6.75127
6.75008
6.74895
6.74788
6.74688
6.74595
6.74507
6.74425
6.74348
6.74277
6.74211
6.7415
6.74093
6.74041
6.73992
6.73948
6.73908
6.73871
6.73837
6.73807
6.73779
6.73755
6.73732
6.73712
6.73695
6.73679
6.73665
6.73653
6.73643
6.73634
6.73627
6.7362
6.73615
6.73611
6.73608
6.73606
6.73605
6.73604
6.73604
6.73605
6.73606
6.73608
6.7361
6.73613
6.73616
6.73619
6.73623
6.73628
6.73632
6.73637
6.73642
6.73647
6.73653
6.73658
6.73664
6.7367
6.73676
6.73682
6.73689
6.73696
6.73702
6.73709
6.73716
6.73723
6.7373
6.73738
6.73745
6.73753
6.7376
6.73768
6.73776
6.73784
6.73792
6.738
6.73808
6.73816
6.73825
6.73833
6.73842
6.7385
6.73859
6.73867
6.73876
6.73885
6.73894
6.73903
6.73912
6.73921
6.7393
6.73939
6.73948
6.73957
6.73967
6.73976
6.73986
6.73995
6.74004
6.74014
6.74023
6.74033
6.74042
6.74052
6.74062
6.74071
6.74081
6.74091
6.74101
6.74111
6.74121
6.7413
6.7414
6.7415
6.7416
6.7417
6.7418
6.74191
6.74201
6.74211
6.74221
6.74231
6.74241
6.74251
6.74262
6.74272
6.74282
6.74292
6.74303
6.74313
6.74324
6.74334
6.74344
6.74355
6.74365
6.74376
6.74386
6.74397
6.74407
6.74417
6.74428
6.74438
6.74449
6.7446
6.7447
6.74481
6.74492
6.74502
6.74513
6.74524
6.74534
6.74545
6.74556
6.74567
6.74577
6.74588
6.74599
6.74609
6.7462
6.74631
6.74642
6.74653
6.74663
6.74674
6.74685
6.74696
6.74707
6.74718
6.74728
6.74739
6.7475
6.74761
6.74772
6.74783
6.74794
6.74805
6.74816
6.74826
6.74837
6.74848
6.74859
6.7487
6.74881
6.74892
6.74903
6.74914
6.74925
6.74936
6.74947
6.74959
6.7497
6.74981
6.74992
6.75003
6.75014
6.75025
6.75036
6.75047
6.75058
6.7507
6.75081
6.75092
6.75103
6.75114
6.75126
6.75137
6.75148
6.75159
6.7517
6.75181
6.75193
6.75204
6.75215
6.75226
6.75237
6.75249
6.7526
6.75271
6.75282
6.75293
6.75305
6.75316
6.75327
6.75338
6.75349
6.75361
6.75372
6.75383
6.75394
6.75405
6.75416
6.75428
6.75439
6.7545
6.75461
6.75472
6.75483
6.75495
6.75506
6.75517
6.75528
6.75539
6.7555
6.75562
6.75573
6.75584
6.75595
6.75606
6.75617
6.75629
6.7564
6.75651
6.75662
6.75673
6.75684
6.75696
6.75707
6.75718
6.75729
6.7574
6.75752
6.75763
6.75774
6.75785
6.75797
6.75808
6.75819
6.75831
6.75842
6.75853
6.75864
6.75876
6.75887
6.75898
6.7591
6.75921
6.75932
6.75943
6.75955
6.75966
6.75977
6.75989
6.76
6.76011
6.76023
6.76034
6.76045
6.76057
6.76068
6.7608
6.76091
6.76102
6.76114
6.76125
6.76136
6.76148
6.76159
6.7617
6.76182
6.76193
6.76204
6.76216
6.76227
6.76238
6.7625
6.76261
6.76272
6.76284
6.76295
6.76306
6.76317
6.76329
6.7634
6.76352
6.76363
6.76374
6.76385
6.76397
6.76408
6.76419
6.7643
6.76442
6.76453
6.76464
6.76476
6.76487
6.76498
6.76509
6.76521
6.76532
6.76543
6.76554
6.76565
6.76577
6.76588
6.76599
6.7661
6.76622
6.76633
6.76644
6.76655
6.76666
6.76678
6.76689
6.767
6.76711
6.76722
6.76733
6.76745
6.76756
6.76767
6.76778
6.76789
6.76801
6.76812
6.76823
6.76834
6.76845
6.76856
6.76868
6.76879
6.7689
6.76901
6.76912
6.76923
6.76935
6.76946
6.76957
6.76968
6.76979
6.7699
6.77001
6.77013
6.77024
6.77035
6.77046
6.77057
6.77068
6.77079
6.7709
6.77102
6.77113
6.77124
6.77135
6.77146
6.77157
6.77168
6.77179
6.7719
6.77201
6.77212
6.77223
6.77234
6.77245
6.77256
6.77267
6.77278
6.77289
6.773
6.77311
6.77322
6.77333
6.77344
6.77355
6.77366
6.77377
6.77388
6.77399
6.7741
6.77421
6.77432
6.77443
6.77454
6.77465
6.77476
6.77487
6.77498
6.77509
6.7752
6.77531
6.77541
6.77552
6.77563
6.77574
6.77585
6.77596
6.77607
6.77618
6.77629
6.77639
6.7765
6.77661
6.77672
6.77683
6.77694
6.77704
6.77715
6.77726
6.77737
6.77748
6.77759
6.77769
6.7778
6.77791
6.77802
6.77813
6.77823
6.77834
6.77845
6.77856
6.77867
6.77877
6.77888
6.77899
6.7791
6.7792
6.77931
6.77942
6.77953
6.77963
6.77974
6.77985
6.77995
6.78006
6.78017
6.78027
6.78038
6.78049
6.78059
6.7807
6.78081
6.78091
6.78102
6.78113
6.78123
6.78134
6.78144
6.78155
6.78166
6.78176
6.78187
6.78198
6.78208
6.78219
6.78229
6.7824
6.78251
6.78261
6.78272
6.78282
6.78293
6.78303
6.78314
6.78324
6.78335
6.78345
6.78356
6.78367
6.78377
6.78388
6.78398
6.78409
6.78419
6.7843
6.7844
6.78451
6.78461
6.78472
6.78482
6.78492
6.78503
6.78513
6.78524
6.78534
6.78545
6.78555
6.78565
6.78576
6.78586
6.78597
6.78607
6.78618
6.78628
6.78638
6.78649
6.78659
6.7867
6.7868
6.7869
6.787
6.78711
6.78721
6.78731
6.78742
6.78752
6.78763
6.78773
6.78783
6.78794
6.78804
6.78814
6.78824
6.78835
6.78845
6.78855
6.78865
6.78876
6.78886
6.78896
6.78907
6.78917
6.78927
6.78937
6.78948
6.78958
6.78968
6.78978
6.78989
6.78999
6.79009
6.79019
6.79029
6.7904
6.7905
6.7906
6.7907
6.7908
6.7909
6.79101
6.79111
6.79121
6.79131
6.79141
6.79151
6.79161
6.79171
6.79182
6.79192
6.79202
6.79212
6.79222
6.79232
6.79242
6.79252
6.79262
6.79273
6.79283
6.79293
6.79303
6.79313
6.79323
6.79333
6.79343
6.79353
6.79363
6.79373
6.79383
6.79393
6.79403
6.79413
6.79423
6.79433
6.79443
6.79453
6.79463
6.79473
6.79483
6.79493
6.79503
6.79513
6.79523
6.79533
6.79543
6.79553
6.79562
6.79572
6.79582
6.79592
6.79602
6.79612
6.79621
6.79631
6.79641
6.79651
6.79661
6.79671
6.7968
6.7969
6.797
6.7971
6.7972
6.7973
6.79739
6.79749
6.79759
6.79768
6.79778
6.79788
6.79798
6.79807
6.79817
6.79827
6.79837
6.79846
6.79856
6.79866
6.79875
6.79885
6.79895
6.79904
6.79914
6.79924
6.79933
6.79943
6.79953
6.79962
6.79972
6.79982
6.79991
6.80001
6.8001
6.8002
6.80029
6.80039
6.80049
6.80058
6.80068
6.80077
6.80087
6.80096
6.80106
6.80115
6.80125
6.80134
6.80144
6.80153
6.80162
6.80172
6.80181
6.80191
6.802
6.8021
6.80219
6.80229
6.80238
6.80247
6.80257
6.80266
6.80275
6.80285
6.80294
6.80304
6.80313
6.80322
6.80332
6.80341
6.8035
6.80359
6.80369
6.80378
6.80387
6.80396
6.80406
6.80415
6.80424
6.80433
6.80443
6.80452
6.80461
6.8047
6.8048
6.80489
6.80498
6.80507
6.80516
6.80525
6.80535
6.80544
6.80553
6.80562
6.80571
6.8058
6.80589
6.80598
6.80608
6.80617
6.80626
6.80635
6.80644
6.80653
6.80662
6.80671
6.8068
6.80689
6.80698
6.80707
6.80716
6.80725
6.80734
6.80743
6.80752
6.80761
6.8077
6.80779
6.80788
6.80797
6.80806
6.80815
6.80823
6.80832
6.80841
6.8085
6.80859
6.80868
6.80877
6.80886
6.80894
6.80903
6.80912
6.80921
6.8093
6.80939
6.80947
6.80956
6.80965
6.80974
6.80983
6.80991
6.81
6.81009
6.81018
6.81026
6.81035
6.81044
6.81052
6.81061
6.8107
6.81078
6.81087
6.81096
6.81104
6.81113
6.81122
6.8113
6.81139
6.81147
6.81156
6.81165
6.81173
6.81182
6.81191
6.81199
6.81208
6.81216
6.81225
6.81233
6.81242
6.8125
6.81259
6.81267
6.81276
6.81284
6.81293
6.81301
6.8131
6.81318
6.81327
6.81335
6.81344
6.81352
6.81361
6.81369
6.81377
6.81386
6.81394
6.81402
6.81411
6.81419
6.81427
6.81436
6.81444
6.81452
6.81461
6.81469
6.81477
6.81486
6.81494
6.81502
6.8151
6.81519
6.81527
6.81535
6.81543
6.81552
6.8156
6.81568
6.81576
6.81584
6.81592
6.81601
6.81609
6.81617
6.81625
6.81633
6.81641
6.81649
6.81658
6.81666
6.81674
6.81682
6.8169
6.81698
6.81706
6.81714
6.81722
6.8173
6.81738
6.81746
6.81754
6.81762
6.8177
6.81778
6.81786
6.81794
6.81802
6.8181
6.81818
6.81826
6.81833
6.81841
6.81849
6.81857
6.81865
6.81873
6.81881
6.81888
6.81896
6.81904
6.81912
6.8192
6.81927
6.81935
6.81943
6.81951
6.81959
6.81966
6.81974
6.81982
6.81989
6.81997
6.82005
6.82013
6.8202
6.82028
6.82036
6.82043
6.82051
6.82059
6.82066
6.82074
6.82081
6.82089
6.82096
6.82104
6.82112
6.82119
6.82127
6.82134
6.82142
6.82149
6.82157
6.82164
6.82172
6.82179
6.82187
6.82194
6.82201
6.82209
6.82216
6.82224
6.82231
6.82238
6.82246
6.82253
6.82261
6.82268
6.82275
6.82283
6.8229
6.82297
6.82305
6.82312
6.82319
6.82326
6.82334
6.82341
6.82348
6.82355
6.82363
6.8237
6.82377
6.82384
6.82391
6.82398
6.82406
6.82413
6.8242
6.82427
6.82434
6.82441
6.82448
6.82456
6.82463
6.8247
6.82477
6.82484
6.82491
6.82498
6.82505
6.82512
6.82519
6.82526
6.82533
6.8254
6.82547
6.82553
6.8256
6.82567
6.82574
6.82581
6.82588
6.82595
6.82602
6.82609
6.82616
6.82622
6.82629
6.82636
6.82643
6.8265
6.82656
6.82663
6.8267
6.82677
6.82683
6.8269
6.82697
6.82703
6.8271
6.82717
6.82723
6.8273
6.82737
6.82743
6.8275
6.82757
6.82763
6.8277
6.82776
6.82783
6.82789
6.82796
6.82803
6.82809
6.82816
6.82822
6.82829
6.82835
6.82841
6.82848
6.82854
6.82861
6.82867
6.82873
6.8288
6.82886
6.82893
6.82899
6.82906
6.82912
6.82918
6.82925
6.82931
6.82937
6.82944
6.8295
6.82956
6.82962
6.82969
6.82975
6.82981
6.82987
6.82993
6.83
6.83006
6.83012
6.83018
6.83024
6.83031
6.83037
6.83043
6.83049
6.83055
6.83061
6.83067
6.83073
6.83079
6.83085
6.83091
6.83097
6.83103
6.83109
6.83115
6.83121
6.83127
6.83133
6.83139
6.83145
6.83151
6.83157
6.83163
6.83168
6.83174
6.8318
6.83186
6.83192
6.83198
6.83204
6.83209
6.83215
6.83221
6.83227
6.83232
6.83238
6.83244
6.8325
6.83255
6.83261
6.83267
6.83272
6.83278
6.83284
6.83289
6.83295
6.833
6.83306
6.83312
6.83317
6.83323
6.83328
6.83334
6.8334
6.83345
6.83351
6.83356
6.83361
6.83367
6.83372
6.83378
6.83383
6.83389
6.83394
6.83399
6.83405
6.8341
6.83416
6.83421
6.83426
6.83431
6.83437
6.83442
6.83447
6.83452
6.83458
6.83463
6.83468
6.83473
6.83479
6.83484
6.83489
6.83494
6.83499
6.83505
6.8351
6.83515
6.8352
6.83525
6.8353
6.83535
6.8354
6.83545
6.8355
6.83555
6.8356
6.83565
6.8357
6.83575
6.8358
6.83585
6.8359
6.83595
6.836
6.83605
6.8361
6.83615
6.8362
6.83624
6.83629
6.83634
6.83639
6.83644
6.83649
6.83653
6.83658
6.83663
6.83668
6.83672
6.83677
6.83682
6.83686
6.83691
6.83696
6.837
6.83705
6.8371
6.83714
6.83719
6.83723
6.83728
6.83732
6.83737
6.83742
6.83746
6.83751
6.83755
6.83759
6.83764
6.83768
6.83773
6.83777
6.83782
6.83786
6.83791
6.83795
6.83799
6.83804
6.83808
6.83813
6.83817
6.83821
6.83825
6.8383
6.83834
6.83838
6.83842
6.83847
6.83851
6.83855
6.83859
6.83863
6.83868
6.83872
6.83876
6.8388
6.83884
6.83888
6.83892
6.83896
6.839
6.83904
6.83909
6.83913
6.83917
6.83921
6.83925
6.83928
6.83932
6.83936
6.8394
6.83944
6.83948
6.83952
6.83956
6.8396
6.83964
6.83968
6.83971
6.83975
6.83979
6.83983
6.83987
6.8399
6.83994
6.83998
6.84002
6.84005
6.84009
6.84013
6.84016
6.8402
6.84024
6.84027
6.84031
6.84034
6.84038
6.84042
6.84045
6.84049
6.84052
6.84056
6.84059
6.84063
6.84066
6.8407
6.84073
6.84077
6.8408
6.84084
6.84087
6.8409
6.84094
6.84097
6.841
6.84104
6.84107
6.8411
6.84114
6.84117
6.8412
6.84124
6.84127
6.8413
6.84133
6.84136
6.8414
6.84143
6.84146
6.84149
6.84152
6.84155
6.84159
6.84162
6.84165
6.84168
6.84171
6.84174
6.84177
6.8418
6.84183
6.84186
6.84189
6.84192
6.84195
6.84198
6.84201
6.84204
6.84207
6.84209
6.84212
6.84215
6.84218
6.84221
6.84224
6.84227
6.84229
6.84232
6.84235
6.84238
6.8424
6.84243
6.84246
6.84249
6.84251
6.84254
6.84257
6.84259
6.84262
6.84265
6.84267
6.8427
6.84272
6.84275
6.84278
6.8428
6.84283
6.84285
6.84288
6.8429
6.84293
6.84295
6.84298
6.843
6.84303
6.84305
6.84307
6.8431
6.84312
6.84315
6.84317
6.84319
6.84322
6.84324
6.84326
6.84329
6.84331
6.84333
6.84335
6.84337
6.8434
6.84342
6.84344
6.84346
6.84348
6.84351
6.84353
6.84355
6.84357
6.84359
6.84361
6.84363
6.84365
6.84367
6.84369
6.84371
6.84373
6.84375
6.84377
6.84379
6.84381
6.84383
6.84385
6.84387
6.84389
6.84391
6.84393
6.84395
6.84396
6.84398
6.844
6.84402
6.84404
6.84406
6.84407
6.84409
6.84411
6.84413
6.84415
6.84416
6.84418
6.8442
6.84421
6.84423
6.84425
6.84426
6.84428
6.8443
6.84431
6.84433
6.84434
6.84436
6.84437
6.84439
6.84441
6.84442
6.84444
6.84445
6.84447
6.84448
6.8445
6.84451
6.84453
6.84454
6.84455
6.84457
6.84458
6.84459
6.84461
6.84462
6.84464
6.84465
6.84466
6.84468
6.84469
6.8447
6.84472
6.84473
6.84474
6.84475
6.84477
6.84478
6.84479
6.8448
6.84481
6.84483
6.84484
6.84485
6.84486
6.84487
6.84488
6.84489
6.84491
6.84492
6.84493
6.84494
6.84495
6.84496
6.84497
6.84498
6.84499
6.845
6.84501
6.84502
6.84503
6.84504
6.84505
6.84506
6.84507
6.84508
6.84509
6.84509
6.8451
6.84511
6.84512
6.84513
6.84514
6.84514
6.84515
6.84516
6.84517
6.84517
6.84518
6.84519
6.8452
6.8452
6.84521
6.84522
6.84522
6.84523
6.84524
6.84524
6.84525
6.84526
6.84526
6.84527
6.84528
6.84528
6.84529
6.84529
6.8453
6.84531
6.84531
6.84532
6.84532
6.84533
6.84533
6.84534
6.84534
6.84535
6.84535
6.84536
6.84536
6.84537
6.84537
6.84538
6.84538
6.84539
6.84539
6.8454
6.8454
6.8454
6.84541
6.84541
6.84542
6.84542
6.84542
6.84543
6.84543
6.84543
6.84544
6.84544
6.84544
6.84545
6.84545
6.84545
6.84545
6.84546
6.84546
6.84546
6.84546
6.84547
6.84547
6.84547
6.84547
6.84547
6.84547
6.84547
6.84548
6.84548
6.84548
6.84548
6.84548
6.84548
6.84548
6.84548
6.84548
6.84548
6.84548
6.84548
6.84548
6.84548
6.84548
6.84548
6.84548
6.84549
6.84549
6.84549
6.84549
6.84549
6.84549
6.84549
6.84549
6.84549
6.84549
6.84549
6.84549
6.84549
6.84549
6.84549
6.84549
6.84549
6.84549
6.84549
6.84549
6.84549
6.84549
6.84549
6.84549
6.84549
6.84549
6.84549
6.84549
6.84549
6.84549
6.84549
6.84549
6.84549
6.84549
6.84549
6.84549
6.84548
6.84548
6.84548
6.84548
6.84548
6.84548
6.84548
6.84548
6.84548
6.84548
6.84548
6.84548
6.84548
6.84548
6.84548
6.84548
6.84548
6.84548
6.84547
6.84547
6.84547
6.84547
6.84547
6.84547
6.84547
6.84547
6.84547
6.84547
6.84547
6.84547
6.84547
6.84547
6.84547
6.84547
6.84547
6.84546
6.84546
6.84546
6.84546
6.84546
6.84546
6.84546
6.84546
6.84546
6.84546
6.84546
6.84546
6.84546
6.84546
6.84546
6.84546
6.84546
6.84545
6.84545
6.84545
6.84545
6.84545
6.84545
6.84545
6.84545
6.84545
6.84545
6.84545
6.84545
6.84545
6.84545
6.84545
6.84545
6.84545
6.84545
6.84545
6.84545
6.84544
6.84544
6.84544
6.84544
6.84544
6.84544
6.84544
6.84544
6.84544
6.84544
6.84544
6.84544
6.84544
6.84544
6.84544
6.84544
6.84544
6.84544
6.84544
6.84544
6.84544
6.84544
6.84544
6.84543
6.84543
6.84543
6.84543
6.84543
6.84543
6.84543
6.84543
6.84543
6.84543
6.84543
6.84543
6.84543
6.84543
6.84543
6.84543
6.84543
6.84543
6.84543
6.84542
6.84542
6.84542
6.84542
6.84542
6.84542
6.84542
6.84542
6.84542
6.84542
6.84542
6.84542
6.84542
6.84542
6.84542
6.84542
6.84542
6.84542
6.84542
6.84542
6.84542
6.84542
6.84541
6.84541
6.84541
6.84541
6.84541
6.84541
6.84541
6.84541
6.84541
6.84541
6.84541
6.84541
6.84541
6.84541
6.84541
6.84541
6.8454
6.8454
6.8454
6.8454
6.8454
6.8454
6.8454
6.8454
6.8454
6.8454
6.8454
6.8454
6.8454
6.8454
6.8454
6.8454
6.8454
6.8454
6.8454
6.8454
6.8454
6.8454
6.8454
6.8454
6.84539
6.84539
6.84539
6.84539
6.84539
6.84539
6.84539
6.84539
6.84539
6.84539
6.84539
6.84539
6.84539
6.84539
6.84539
6.84539
6.84538
6.84538
6.84538
6.84538
6.84538
6.84538
6.84538
6.84538
6.84538
6.84538
6.84538
6.84538
6.84538
6.84538
6.84538
6.84538
6.84538
6.84538
6.84538
6.84538
6.84537
6.84537
6.84537
6.84537
6.84537
6.84537
6.84537
6.84537
6.84537
6.84537
6.84537
6.84537
6.84537
6.84536
6.84536
6.84536
6.84536
6.84536
6.84536
6.84536
6.84536
6.84536
6.84536
6.84536
6.84536
6.84536
6.84535
6.84535
6.84535
6.84535
6.84535
6.84535
6.84535
6.84535
6.84535
6.84535
6.84535
6.84534
6.84534
6.84534
6.84534
6.84534
6.84534
6.84534
6.84534
6.84534
6.84534
6.84534
6.84533
6.84533
6.84533
6.84533
6.84533
6.84533
6.84533
6.84533
6.84533
6.84533
6.84533
6.84533
6.84533
6.84533
6.84532
6.84532
6.84532
6.84532
6.84532
6.84532
6.84532
6.84532
6.84532
6.84532
6.84532
6.84532
6.84532
6.84532
6.84532
6.84532
6.84531
6.84531
6.84531
6.84531
6.84531
6.84531
6.84531
6.84531
6.84531
6.84531
6.84531
6.84531
6.84531
6.84531
6.8453
6.8453
6.8453
6.8453
6.8453
6.8453
6.8453
6.8453
6.8453
6.8453
6.8453
6.8453
6.8453
6.84529
6.84529
6.84529
6.84529
6.84529
6.84529
6.84529
6.84529
6.84529
6.84529
6.84529
6.84529
6.84529
6.84529
6.84529
6.84529
6.84529
6.84528
6.84528
6.84528
6.84528
6.84528
6.84528
6.84528
6.84528
6.84528
6.84528
6.84528
6.84528
6.84528
6.84527
6.84527
6.84527
6.84527
6.84527
6.84527
6.84527
6.84527
6.84527
6.84527
6.84527
6.84527
6.84527
6.84526
6.84526
6.84526
6.84526
6.84526
6.84526
6.84526
6.84526
6.84526
6.84526
6.84526
6.84526
6.84526
6.84525
6.84525
6.84525
6.84525
6.84525
6.84525
6.84525
6.84525
6.84525
6.84525
6.84524
6.84524
6.84524
6.84524
6.84524
6.84524
6.84524
6.84524
6.84524
6.84524
6.84524
6.84524
6.84524
6.84523
6.84523
6.84523
6.84523
6.84523
6.84523
6.84523
6.84523
6.84523
6.84523
6.84523
6.84523
6.84523
6.84523
6.84523
6.84523
6.84523
6.84523
6.84523
6.84523
6.84523
6.84523
6.84523
6.84522
6.84522
6.84522
6.84522
6.84522
6.84522
6.84522
6.84522
6.84522
6.84522
6.84522
6.84521
6.84521
6.84521
6.84521
6.84521
6.84521
6.84521
6.84521
6.84521
6.84521
6.84521
6.84521
6.8452
6.8452
6.8452
6.8452
6.8452
6.8452
6.8452
6.8452
6.8452
6.8452
6.8452
6.8452
6.8452
6.8452
6.8452
6.8452
6.84519
6.84519
6.84519
6.84519
6.84519
6.84519
6.84519
6.84519
6.84519
6.84519
6.84519
6.84518
6.84518
6.84518
6.84518
6.84518
6.84518
6.84518
6.84518
6.84518
6.84518
6.84518
6.84518
6.84518
6.84518
6.84518
6.84518
6.84518
6.84517
6.84517
6.84517
6.84517
6.84517
6.84517
6.84517
6.84517
6.84517
6.84517
6.84517
6.84517
6.84517
6.84516
6.84516
6.84516
6.84516
6.84516
6.84516
6.84516
6.84516
6.84516
6.84516
6.84516
6.84516
6.84516
6.84515
6.84515
6.84515
6.84515
6.84515
6.84515
6.84515
6.84515
6.84515
6.84515
6.84515
6.84515
6.84515
6.84515
6.84515
6.84515
6.84514
6.84514
6.84514
6.84514
6.84514
6.84514
6.84514
6.84514
6.84514
6.84514
6.84514
6.84514
6.84514
6.84513
6.84513
6.84513
6.84513
6.84513
6.84513
6.84513
6.84513
6.84513
6.84513
6.84512
6.84512
6.84512
6.84512
6.84512
6.84512
6.84512
6.84512
6.84512
6.84512
6.84512
6.84512
6.84512
6.84512
6.84512
6.84512
6.84512
6.84511
6.84511
6.84511
6.84511
6.84511
6.84511
6.84511
6.84511
6.84511
6.84511
6.84511
6.84511
6.8451
6.8451
6.8451
6.8451
6.8451
6.8451
6.8451
6.8451
6.8451
6.8451
6.8451
6.8451
6.8451
6.8451
6.8451
6.8451
6.84509
6.84509
6.84509
6.84509
6.84509
6.84509
6.84509
6.84509
6.84509
6.84509
6.84509
6.84509
6.84509
6.84509
6.84509
6.84508
6.84508
6.84509
6.84508
6.84508
6.84508
6.84508
6.84508
6.84508
6.84508
6.84508
6.84508
6.84508
6.84508
6.84508
6.84508
6.84507
6.84507
6.84507
6.84507
6.84507
6.84507
6.84507
6.84507
6.84507
6.84507
6.84507
6.84507
6.84507
6.84506
6.84506
6.84506
6.84506
6.84506
6.84506
6.84506
6.84506
6.84505
6.84505
6.84505
6.84505
6.84505
6.84505
6.84505
6.84505
6.84505
6.84505
6.84505
6.84505
6.84505
6.84504
6.84504
6.84504
6.84504
6.84504
6.84504
6.84504
6.84504
6.84504
6.84504
6.84504
6.84504
6.84504
6.84504
6.84504
6.84504
6.84504
6.84503
6.84503
6.84503
6.84503
6.84503
6.84503
6.84503
6.84503
6.84503
6.84503
6.84503
6.84503
6.84502
6.84502
6.84502
6.84502
6.84502
6.84502
6.84502
6.84502
6.84502
6.84502
6.84502
6.84502
6.84502
6.84501
6.84501
6.84501
6.84501
6.84501
6.84501
6.84501
6.845
6.845
6.845
6.845
6.845
6.845
6.845
6.84499
6.84499
6.84499
6.84499
6.84499
6.84499
6.84499
6.84498
6.84498
6.84498
6.84498
6.84497
6.84497
6.84497
6.84497
6.84497
6.84497
6.84497
6.84496
6.84496
6.84496
6.84496
6.84496
6.84496
6.84496
6.84495
6.84495
6.84495
6.84495
6.84495
6.84495
6.84494
6.84494
6.84494
6.84494
6.84494
6.84494
6.84494
6.84493
6.84493
6.84493
6.84493
6.84493
6.84493
6.84493
6.84493
6.84492