<?xml version="1.0"?>
<VTKFile type="RectilinearGrid">
<RectilinearGrid WholeExtent="0 3500 0 0 0 0">
<Piece Extent="0 3500 0 0 0 0">
<Coordinates>
<DataArray type="Float32" format="ascii">
0
0.285714
0.571429
0.857143
1.14286
1.42857
1.71429
2
2.28571
2.57143
2.85714
3.14286
3.42857
3.71429
4
4.28571
4.57143
4.85714
5.14286
5.42857
5.71429
6
6.28571
6.57143
6.85714
7.14286
7.42857
7.71429
8
8.28572
8.57143
8.85714
9.14286
9.42857
9.71429
10
10.2857
10.5714
10.8571
11.1429
11.4286
11.7143
12
12.2857
12.5714
12.8571
13.1429
13.4286
13.7143
14
14.2857
14.5714
14.8571
15.1429
15.4286
15.7143
16
16.2857
16.5714
16.8571
17.1429
17.4286
17.7143
18
18.2857
18.5714
18.8571
19.1429
19.4286
19.7143
20
20.2857
20.5714
20.8571
21.1429
21.4286
21.7143
22
22.2857
22.5714
22.8571
23.1429
23.4286
23.7143
24
24.2857
24.5714
24.8571
25.1429
25.4286
25.7143
26
26.2857
26.5714
26.8571
27.1429
27.4286
27.7143
28
28.2857
28.5714
28.8571
29.1429
29.4286
29.7143
30
30.2857
30.5714
30.8571
31.1429
31.4286
31.7143
32
32.2857
32.5714
32.8571
33.1429
33.4286
33.7143
34
34.2857
34.5714
34.8571
35.1429
35.4286
35.7143
36
36.2857
36.5714
36.8571
37.1429
37.4286
37.7143
38
38.2857
38.5714
38.8571
39.1429
39.4286
39.7143
40
40.2857
40.5714
40.8571
41.1429
41.4286
41.7143
42
42.2857
42.5714
42.8571
43.1429
43.4286
43.7143
44
44.2857
44.5714
44.8571
45.1429
45.4286
45.7143
46
46.2857
46.5714
46.8571
47.1429
47.4286
47.7143
48
48.2857
48.5714
48.8571
49.1429
49.4286
49.7143
50
50.2857
50.5714
50.8571
51.1429
51.4286
51.7143
52
52.2857
52.5714
52.8571
53.1429
53.4286
53.7143
54
54.2857
54.5714
54.8571
55.1429
55.4286
55.7143
56
56.2857
56.5714
56.8571
57.1429
57.4286
57.7143
58
58.2857
58.5714
58.8571
59.1429
59.4286
59.7143
60
60.2857
60.5714
60.8571
61.1429
61.4286
61.7143
62
62.2857
62.5714
62.8571
63.1429
63.4286
63.7143
64
64.2857
64.5714
64.8571
65.1429
65.4286
65.7143
66
66.2857
66.5714
66.8571
67.1429
67.4286
67.7143
68
68.2857
68.5714
68.8571
69.1429
69.4286
69.7143
70
70.2857
70.5714
70.8571
71.1429
71.4286
71.7143
72
72.2857
72.5714
72.8571
73.1429
73.4286
73.7143
74
74.2857
74.5714
74.8571
75.1429
75.4286
75.7143
76
76.2857
76.5714
76.8571
77.1429
77.4286
77.7143
78
78.2857
78.5714
78.8571
79.1429
79.4286
79.7143
80
80.2857
80.5714
80.8571
81.1429
81.4286
81.7143
82
82.2857
82.5714
82.8571
83.1429
83.4286
83.7143
84
84.2857
84.5714
84.8571
85.1429
85.4286
85.7143
86
86.2857
86.5714
86.8571
87.1429
87.4286
87.7143
88
88.2857
88.5714
88.8571
89.1429
89.4286
89.7143
90
90.2857
90.5714
90.8571
91.1429
91.4286
91.7143
92
92.2857
92.5714
92.8571
93.1429
93.4286
93.7143
94
94.2857
94.5714
94.8571
95.1429
95.4286
95.7143
96
96.2857
96.5714
96.8571
97.1429
97.4286
97.7143
98
98.2857
98.5714
98.8571
99.1429
99.4286
99.7143
100
100.286
100.571
100.857
101.143
101.429
101.714
102
102.286
102.571
102.857
103.143
103.429
103.714
104
104.286
104.571
104.857
105.143
105.429
105.714
106
106.286
106.571
106.857
107.143
107.429
107.714
108
108.286
108.571
108.857
109.143
109.429
109.714
110
110.286
110.571
110.857
111.143
111.429
111.714
112
112.286
112.571
112.857
113.143
113.429
113.714
114
114.286
114.571
114.857
115.143
115.429
115.714
116
116.286
116.571
116.857
117.143
117.429
117.714
118
118.286
118.571
118.857
119.143
119.429
119.714
120
120.286
120.571
120.857
121.143
121.429
121.714
122
122.286
122.571
122.857
123.143
123.429
123.714
124
124.286
124.571
124.857
125.143
125.429
125.714
126
126.286
126.571
126.857
127.143
127.429
127.714
128
128.286
128.571
128.857
129.143
129.429
129.714
130
130.286
130.571
130.857
131.143
131.429
131.714
132
132.286
132.571
132.857
133.143
133.429
133.714
134
134.286
134.571
134.857
135.143
135.429
135.714
136
136.286
136.571
136.857
137.143
137.429
137.714
138
138.286
138.571
138.857
139.143
139.429
139.714
140
140.286
140.571
140.857
141.143
141.429
141.714
142
142.286
142.571
142.857
143.143
143.429
143.714
144
144.286
144.571
144.857
145.143
145.429
145.714
146
146.286
146.571
146.857
147.143
147.429
147.714
148
148.286
148.571
148.857
149.143
149.429
149.714
150
150.286
150.571
150.857
151.143
151.429
151.714
152
152.286
152.571
152.857
153.143
153.429
153.714
154
154.286
154.571
154.857
155.143
155.429
155.714
156
156.286
156.571
156.857
157.143
157.429
157.714
158
158.286
158.571
158.857
159.143
159.429
159.714
160
160.286
160.571
160.857
161.143
161.429
161.714
162
162.286
162.571
162.857
163.143
163.429
163.714
164
164.286
164.571
164.857
165.143
165.429
165.714
166
166.286
166.571
166.857
167.143
167.429
167.714
168
168.286
168.571
168.857
169.143
169.429
169.714
170
170.286
170.571
170.857
171.143
171.429
171.714
172
172.286
172.571
172.857
173.143
173.429
173.714
174
174.286
174.571
174.857
175.143
175.429
175.714
176
176.286
176.571
176.857
177.143
177.429
177.714
178
178.286
178.571
178.857
179.143
179.429
179.714
180
180.286
180.571
180.857
181.143
181.429
181.714
182
182.286
182.571
182.857
183.143
183.429
183.714
184
184.286
184.571
184.857
185.143
185.429
185.714
186
186.286
186.571
186.857
187.143
187.429
187.714
188
188.286
188.571
188.857
189.143
189.429
189.714
190
190.286
190.571
190.857
191.143
191.429
191.714
192
192.286
192.571
192.857
193.143
193.429
193.714
194
194.286
194.571
194.857
195.143
195.429
195.714
196
196.286
196.571
196.857
197.143
197.429
197.714
198
198.286
198.571
198.857
199.143
199.429
199.714
200
200.286
200.571
200.857
201.143
201.429
201.714
202
202.286
202.571
202.857
203.143
203.429
203.714
204
204.286
204.571
204.857
205.143
205.429
205.714
206
206.286
206.571
206.857
207.143
207.429
207.714
208
208.286
208.571
208.857
209.143
209.429
209.714
210
210.286
210.571
210.857
211.143
211.429
211.714
212
212.286
212.571
212.857
213.143
213.429
213.714
214
214.286
214.571
214.857
215.143
215.429
215.714
216
216.286
216.571
216.857
217.143
217.429
217.714
218
218.286
218.571
218.857
219.143
219.429
219.714
220
220.286
220.571
220.857
221.143
221.429
221.714
222
222.286
222.571
222.857
223.143
223.429
223.714
224
224.286
224.571
224.857
225.143
225.429
225.714
226
226.286
226.571
226.857
227.143
227.429
227.714
228
228.286
228.571
228.857
229.143
229.429
229.714
230
230.286
230.571
230.857
231.143
231.429
231.714
232
232.286
232.571
232.857
233.143
233.429
233.714
234
234.286
234.571
234.857
235.143
235.429
235.714
236
236.286
236.571
236.857
237.143
237.429
237.714
238
238.286
238.571
238.857
239.143
239.429
239.714
240
240.286
240.571
240.857
241.143
241.429
241.714
242
242.286
242.571
242.857
243.143
243.429
243.714
244
244.286
244.571
244.857
245.143
245.429
245.714
246
246.286
246.571
246.857
247.143
247.429
247.714
248
248.286
248.571
248.857
249.143
249.429
249.714
250
250.286
250.571
250.857
251.143
251.429
251.714
252
252.286
252.571
252.857
253.143
253.429
253.714
254
254.286
254.571
254.857
255.143
255.429
255.714
256
256.286
256.571
256.857
257.143
257.429
257.714
258
258.286
258.571
258.857
259.143
259.429
259.714
260
260.286
260.571
260.857
261.143
261.429
261.714
262
262.286
262.571
262.857
263.143
263.429
263.714
264
264.286
264.571
264.857
265.143
265.429
265.714
266
266.286
266.571
266.857
267.143
267.429
267.714
268
268.286
268.571
268.857
269.143
269.429
269.714
270
270.286
270.571
270.857
271.143
271.429
271.714
272
272.286
272.571
272.857
273.143
273.429
273.714
274
274.286
274.571
274.857
275.143
275.429
275.714
276
276.286
276.571
276.857
277.143
277.429
277.714
278
278.286
278.571
278.857
279.143
279.429
279.714
280
280.286
280.571
280.857
281.143
281.429
281.714
282
282.286
282.571
282.857
283.143
283.429
283.714
284
284.286
284.571
284.857
285.143
285.429
285.714
286
286.286
286.571
286.857
287.143
287.429
287.714
288
288.286
288.571
288.857
289.143
289.429
289.714
290
290.286
290.571
290.857
291.143
291.429
291.714
292
292.286
292.571
292.857
293.143
293.429
293.714
294
294.286
294.571
294.857
295.143
295.429
295.714
296
296.286
296.571
296.857
297.143
297.429
297.714
298
298.286
298.571
298.857
299.143
299.429
299.714
300
300.286
300.571
300.857
301.143
301.429
301.714
302
302.286
302.571
302.857
303.143
303.429
303.714
304
304.286
304.571
304.857
305.143
305.429
305.714
306
306.286
306.571
306.857
307.143
307.429
307.714
308
308.286
308.571
308.857
309.143
309.429
309.714
310
310.286
310.571
310.857
311.143
311.429
311.714
312
312.286
312.571
312.857
313.143
313.429
313.714
314
314.286
314.571
314.857
315.143
315.429
315.714
316
316.286
316.571
316.857
317.143
317.429
317.714
318
318.286
318.571
318.857
319.143
319.429
319.714
320
320.286
320.571
320.857
321.143
321.429
321.714
322
322.286
322.571
322.857
323.143
323.429
323.714
324
324.286
324.571
324.857
325.143
325.429
325.714
326
326.286
326.571
326.857
327.143
327.429
327.714
328
328.286
328.571
328.857
329.143
329.429
329.714
330
330.286
330.571
330.857
331.143
331.429
331.714
332
332.286
332.571
332.857
333.143
333.429
333.714
334
334.286
334.571
334.857
335.143
335.429
335.714
336
336.286
336.571
336.857
337.143
337.429
337.714
338
338.286
338.571
338.857
339.143
339.429
339.714
340
340.286
340.571
340.857
341.143
341.429
341.714
342
342.286
342.571
342.857
343.143
343.429
343.714
344
344.286
344.571
344.857
345.143
345.429
345.714
346
346.286
346.571
346.857
347.143
347.429
347.714
348
348.286
348.571
348.857
349.143
349.429
349.714
350
350.286
350.571
350.857
351.143
351.429
351.714
352
352.286
352.571
352.857
353.143
353.429
353.714
354
354.286
354.571
354.857
355.143
355.429
355.714
356
356.286
356.571
356.857
357.143
357.429
357.714
358
358.286
358.571
358.857
359.143
359.429
359.714
360
360.286
360.571
360.857
361.143
361.429
361.714
362
362.286
362.571
362.857
363.143
363.429
363.714
364
364.286
364.571
364.857
365.143
365.429
365.714
366
366.286
366.571
366.857
367.143
367.429
367.714
368
368.286
368.571
368.857
369.143
369.429
369.714
370
370.286
370.571
370.857
371.143
371.429
371.714
372
372.286
372.571
372.857
373.143
373.429
373.714
374
374.286
374.571
374.857
375.143
375.429
375.714
376
376.286
376.571
376.857
377.143
377.429
377.714
378
378.286
378.571
378.857
[...]
<CellData>
<DataArray Name="h" type="Float32" format="ascii">
13.9999
13.9999
13.9999
13.9999
13.9999
13.9999
13.9999
13.9999
13.9999
13.9999
13.9999
13.9999
13.9999
13.9999
13.9999
13.9999
13.9999
13.9999
13.9999
13.9999
13.9999
13.9999
13.9999
13.9999
13.9999
13.9999
13.9999
13.9999
13.9998
13.9998
13.9998
13.9998
13.9998
13.9998
13.9997
13.9997
13.9997
13.9996
13.9996
13.9995
13.9994
13.9993
13.9992
13.9991
13.999
13.9988
13.9987
13.9985
13.9983
13.998
13.9977
13.9974
13.9971
13.9967
13.9962
13.9957
13.9952
13.9946
13.9939
13.9932
13.9924
13.9915
13.9905
13.9894
13.9883
13.987
13.9856
13.9841
13.9825
13.9807
13.9788
13.9768
13.9746
13.9722
13.9697
13.9671
13.9642
13.9612
13.958
13.9546
13.951
13.9472
13.9433
13.9391
13.9347
13.9301
13.9253
13.9203
13.915
13.9096
13.9039
13.898
13.8919
13.8856
13.8791
13.8723
13.8654
13.8582
13.8508
13.8433
13.8355
13.8275
13.8193
13.8109
13.8023
13.7936
13.7846
13.7755
13.7662
13.7567
13.747
13.7372
13.7272
13.7171
13.7068
13.6963
13.6857
13.675
13.6641
13.6531
13.6419
13.6306
13.6192
13.6077
13.596
13.5842
13.5723
13.5603
13.5482
13.536
13.5237
13.5113
13.4988
13.4862
13.4736
13.4608
13.448
13.435
13.422
13.409
13.3958
13.3826
13.3693
13.3559
13.3425
13.329
13.3154
13.3018
13.2881
13.2744
13.2606
13.2468
13.2329
13.2189
13.2049
13.1909
13.1768
13.1627
13.1485
13.1343
13.12
13.1057
13.0914
13.077
13.0626
13.0481
13.0336
13.0191
13.0045
12.9899
12.9753
12.9606
12.946
12.9312
12.9165
12.9017
12.8869
12.8721
12.8572
12.8424
12.8274
12.8125
12.7976
12.7826
12.7676
12.7525
12.7375
12.7224
12.7073
12.6922
12.6771
12.6619
12.6468
12.6316
12.6163
12.6011
12.5859
12.5706
12.5553
12.54
12.5247
12.5093
12.494
12.4786
12.4632
12.4478
12.4324
12.417
12.4015
12.3861
12.3706
12.3551
12.3396
12.3241
12.3085
12.293
12.2774
12.2618
12.2462
12.2306
12.215
12.1994
12.1837
12.1681
12.1524
12.1367
12.121
12.1053
12.0896
12.0739
12.0582
12.0424
12.0266
12.0109
11.9951
11.9793
11.9635
11.9477
11.9318
11.916
11.9001
11.8843
11.8684
11.8525
11.8366
11.8207
11.8048
11.7889
11.7729
11.757
11.741
11.7251
11.7091
11.6931
11.6771
11.6611
11.6451
11.629
11.613
11.597
11.5809
11.5648
11.5488
11.5327
11.5166
11.5005
11.4844
11.4682
11.4521
11.436
11.4198
11.4036
11.3875
11.3713
11.3551
11.3389
11.3227
11.3065
11.2902
11.274
11.2577
11.2415
11.2252
11.209
11.1927
11.1764
11.1601
11.1438
11.1274
11.1111
11.0948
11.0784
11.062
11.0457
11.0293
11.0129
10.9965
10.9801
10.9637
10.9473
10.9308
10.9144
10.8979
10.8815
10.865
10.8485
10.832
10.8155
10.799
10.7825
10.7659
10.7494
10.7328
10.7163
10.6997
10.6831
10.6665
10.6499
10.6333
10.6167
10.6001
10.5834
10.5668
10.5501
10.5335
10.5168
10.5001
10.4834
10.4667
10.45
10.4332
10.4165
10.3998
10.383
10.3662
10.3494
10.3327
10.3159
10.299
10.2822
10.2654
10.2485
10.2317
10.2148
10.198
10.1811
10.1642
10.1473
10.1304
10.1134
10.0965
10.0795
10.0626
10.0456
10.0286
10.0116
9.99463
9.97761
9.96058
9.94354
9.92649
9.90943
9.89236
9.87528
9.85818
9.84108
9.82396
9.80683
9.78969
9.77254
9.75537
9.73819
9.72101
9.70381
9.6866
9.66937
9.65214
9.63489
9.61763
9.60036
9.58308
9.56578
9.54848
9.53116
9.51382
9.49648
9.47912
9.46175
9.44437
9.42697
9.40956
9.39215
9.37471
9.35727
9.33981
9.32234
9.30486
9.28736
9.26985
9.25233
9.23479
9.21724
9.19968
9.18211
9.16452
9.14692
9.1293
9.11167
9.09403
9.07638
9.05871
9.04103
9.02333
9.00562
8.9879
8.97017
8.95242
8.93466
8.91688
8.89909
8.88129
8.86347
8.84565
8.8278
8.80995
8.79208
8.77419
8.75629
8.73839
8.72046
8.70252
8.68457
8.66661
8.64863
8.63064
8.61263
8.59462
8.57659
8.55855
8.54049
8.52242
8.50434
8.48624
8.46814
8.45002
8.43189
8.41374
8.39559
8.37742
8.35925
8.34106
8.32286
8.30465
8.28642
8.26819
8.24995
8.2317
8.21344
8.19517
8.17689
8.1586
8.14031
8.12201
8.1037
8.08538
8.06706
8.04873
8.0304
8.01207
7.99373
7.97539
7.95705
7.93871
7.92037
7.90203
7.88369
7.86536
7.84703
7.82871
7.81039
7.79208
7.77379
7.75551
7.73724
7.71898
7.70075
7.68253
7.66434
7.64617
7.62803
7.60992
7.59185
7.57381
7.55581
7.53786
7.51995
7.5021
7.4843
7.46656
7.44889
7.43129
7.41377
7.39633
7.37898
7.36173
7.34459
7.32755
7.31064
7.29386
7.27722
7.26072
7.24439
7.22822
7.21225
7.19646
7.18089
7.16553
7.15042
7.13555
7.12095
7.10663
7.09261
7.07891
7.06554
7.05251
7.03986
7.02758
7.0157
7.00424
6.99321
6.98262
6.9725
6.96284
6.95366
6.94496
6.93676
6.92906
6.92185
6.91513
6.90891
6.90316
6.89789
6.89307
6.88869
6.88473
6.88117
6.87799
6.87516
6.87265
6.87045
6.86851
6.86683
6.86536
6.86409
6.863
6.86206
6.86124
6.86054
6.85994
6.85941
6.85896
6.85856
6.85821
6.85789
6.85761
6.85735
6.85711
6.85689
6.85668
6.85648
6.8563
6.85612
6.85595
6.85578
6.85562
6.85546
6.85531
6.85517
6.85502
6.85488
6.85475
6.85461
6.85449
6.85436
6.85424
6.85412
6.854
6.85389
6.85378
6.85367
6.85356
6.85346
6.85336
6.85326
6.85317
6.85307
6.85298
6.85289
6.85281
6.85272
6.85264
6.85256
6.85248
6.8524
6.85232
6.85225
6.85218
6.8521
6.85203
6.85196
6.85189
6.85183
6.85176
6.8517
6.85163
6.85157
6.85151
6.85145
6.85139
6.85133
6.85127
6.85122
6.85116
6.85111
6.85105
6.851
6.85095
6.8509
6.85085
6.8508
6.85075
6.85071
6.85066
6.85061
6.85057
6.85052
6.85048
6.85044
6.8504
6.85035
6.85031
6.85027
6.85023
6.85019
6.85015
6.85011
6.85007
6.85004
6.85
6.84996
6.84992
6.84989
6.84985
6.84982
6.84978
6.84975
6.84971
6.84968
6.84965
6.84962
6.84958
6.84955
6.84952
6.84949
6.84946
6.84943
6.8494
6.84937
6.84934
6.84931
6.84928
6.84925
6.84922
6.84919
6.84916
6.84913
6.84911
6.84908
6.84906
6.84903
6.84901
6.84898
6.84896
6.84893
6.84891
6.84889
6.84886
6.84884
6.84881
6.84879
6.84876
6.84874
6.84872
6.84869
6.84867
6.84864
6.84862
6.8486
6.84858
6.84856
6.84854
6.84852
6.8485
6.84848
6.84846
6.84844
6.84842
6.8484
6.84838
6.84836
6.84834
6.84832
6.8483
6.84829
6.84827
6.84825
6.84823
6.84821
6.84819
6.84817
6.84815
6.84813
6.84811
6.8481
6.84808
6.84806
6.84804
6.84802
6.84801
6.84799
6.84797
6.84796
6.84794
6.84793
6.84791
6.8479
6.84788
6.84787
6.84785
6.84784
6.84782
6.84781
6.84779
6.84778
6.84776
6.84775
6.84773
6.84772
6.8477
6.84769
6.84767
6.84766
6.84765
6.84763
6.84762
6.8476
6.84759
6.84758
6.84756
6.84755
6.84753
6.84752
6.84751
6.84749
6.84748
6.84746
6.84745
6.84744
6.84742
6.84741
6.8474
6.84738
6.84737
6.84736
6.84735
6.84733
6.84732
6.84731
6.8473
6.84728
6.84727
6.84726
6.84725
6.84723
6.84722
6.84721
6.8472
6.84719
6.84718
6.84717
6.84716
6.84715
6.84713
6.84712
6.84711
6.8471
6.84709
6.84708
6.84707
6.84706
6.84705
6.84704
6.84703
6.84702
6.84701
6.847
6.84699
6.84698
6.84697
6.84696
6.84695
6.84694
6.84693
6.84692
6.84691
6.8469
6.84689
6.84688
6.84687
6.84686
6.84685
6.84684
6.84683
6.84682
6.84681
6.8468
6.84679
6.84678
6.84677
6.84676
6.84675
6.84674
6.84673
6.84672
6.84671
6.8467
6.84669
6.84668
6.84667
6.84666
6.84665
6.84664
6.84663
6.84662
6.84661
6.84661
6.8466
6.84659
6.84658
6.84657
6.84656
6.84655
6.84654
6.84653
6.84652
6.84651
6.84651
6.8465
6.84649
6.84648
6.84647
6.84646
6.84645
6.84644
6.84644
6.84643
6.84642
6.84641
6.8464
6.84639
6.84639
6.84638
6.84637
6.84636
6.84635
6.84634
6.84634
6.84633
6.84632
6.84631
6.8463
6.8463
6.84629
6.84628
6.84627
6.84627
6.84626
6.84625
6.84624
6.84623
6.84623
6.84622
6.84621
6.8462
6.8462
6.84619
6.84618
6.84617
6.84617
6.84616
6.84615
6.84614
6.84614
6.84613
6.84612
6.84611
6.84611
6.8461
6.84609
6.84609
6.84608
6.84607
6.84607
6.84606
6.84605
6.84604
6.84604
6.84603
6.84602
6.84601
6.84601
6.846
6.84599
6.84599
6.84598
6.84597
6.84596
6.84596
6.84595
6.84594
6.84593
6.84593
6.84592
6.84591
6.84591
6.8459
6.84589
6.84588
6.84588
6.84587
6.84586
6.84585
6.84585
6.84584
6.84583
6.84583
6.84582
6.84581
6.84581
6.8458
6.84579
6.84579
6.84578
6.84577
6.84577
6.84576
6.84575
6.84574
6.84574
6.84573
6.84572
6.84571
6.84571
6.8457
6.84569
6.84569
6.84568
6.84567
6.84566
6.84566
6.84565
6.84564
6.84564
6.84563
6.84562
6.84562
6.84561
6.8456
6.8456
6.84559
6.84558
6.84558
6.84557
6.84556
6.84556
6.84555
6.84554
6.84554
6.84553
6.84552
6.84552
6.84551
6.8455
6.8455
6.84549
6.84548
6.84548
6.84547
6.84546
6.84546
6.84545
6.84544
6.84544
6.84543
6.84542
6.84542
6.84541
6.8454
6.8454
6.84539
6.84538
6.84538
6.84537
6.84536
6.84536
6.84535
6.84535
6.84534
6.84533
6.84533
6.84532
6.84531
6.84531
6.8453
6.84529
6.84529
6.84528
6.84527
6.84527
6.84526
6.84525
6.84525
6.84524
6.84523
6.84523
6.84522
6.84522
6.84521
6.8452
6.8452
6.84519
6.84518
6.84518
6.84517
6.84516
6.84516
6.84515
6.84514
6.84514
6.84513
6.84512
6.84512
6.84511
6.8451
6.8451
6.84509
6.84508
6.84508
6.84507
6.84506
6.84505
6.84505
6.84504
6.84503
6.84503
6.84502
6.84502
6.84501
6.845
6.845
6.84499
6.84498
6.84498
6.84497
6.84496
6.84496
6.84495
6.84494
6.84494
6.84493
6.84492
6.84492
6.84491
6.8449
6.8449
6.84489
6.84488
6.84488
6.84487
6.84486
6.84485
6.84485
6.84484
6.84483
6.84483
6.84482
6.84481
6.84481
6.8448
6.84479
6.84479
6.84478
6.84477
6.84477
6.84476
6.84475
6.84475
6.84474
6.84473
6.84472
6.84472
6.84471
6.84471
6.8447
6.84469
6.84469
6.84468
6.84467
6.84467
6.84466
6.84465
6.84464
6.84464
6.84463
6.84462
6.84462
6.84461
6.8446
6.8446
6.84459
6.84458
6.84457
6.84457
6.84456
6.84455
6.84455
6.84454
6.84453
6.84452
6.84452
6.84451
6.8445
6.8445
6.84449
6.84448
6.84447
6.84446
6.84446
6.84445
6.84444
6.84443
6.84443
6.84442
6.84441
6.8444
6.8444
6.84439
6.84438
6.84438
6.84437
6.84436
6.84435
6.84435
6.84434
6.84433
6.84432
6.84432
6.84431
6.8443
6.8443
6.84429
6.84428
6.84427
6.84426
6.84426
6.84425
6.84424
6.84423
6.84423
6.84422
6.84421
6.8442
6.8442
6.84419
6.84418
6.84417
6.84416
6.84416
6.84415
6.84414
6.84413
6.84413
6.84412
6.84411
6.8441
6.84409
6.84408
6.84408
6.84407
6.84406
6.84405
6.84404
6.84404
6.84403
6.84402
6.84401
6.844
6.84399
6.84399
6.84398
6.84397
6.84396
6.84395
6.84394
6.84394
6.84393
6.84392
6.84391
6.8439
6.8439
6.84389
6.84388
6.84387
6.84386
6.84385
6.84384
6.84384
6.84383
6.84382
6.84381
6.8438
6.84379
6.84378
6.84377
6.84376
6.84375
6.84374
6.84373
6.84372
6.84371
6.84371
6.8437
6.84369
6.84368
6.84367
6.84366
6.84365
6.84364
6.84364
6.84363
6.84362
6.84361
6.8436
6.84359
6.84358
6.84357
6.84356
6.84355
6.84354
6.84353
6.84352
6.84351
6.8435
6.84349
6.84348
6.84347
6.84345
6.84344
6.84343
6.84342
6.84341
6.8434
6.8434
6.84339
6.84338
6.84337
6.84336
6.84335
6.84334
6.84332
6.84331
6.8433
6.84329
6.84328
6.84327
6.84326
6.84325
6.84324
6.84323
6.84321
6.8432
6.84319
6.84318
6.84317
6.84316
6.84315
6.84314
6.84313
6.84311
6.8431
6.84309
6.84308
6.84306
6.84305
6.84304
6.84303
6.84302
6.84301
6.843
6.84299
6.84298
6.84296
6.84295
6.84294
6.84293
6.84291
6.8429
6.84289
6.84288
6.84287
6.84285
6.84284
6.84282
6.8428
6.84279
6.84277
6.84276
6.84275
6.84274
6.84273
6.84272
6.84271
6.8427
6.84268
6.84266
6.84265
6.84263
6.84262
6.84261
6.8426
6.84259
6.84258
6.84257
6.84255
6.84253
6.84251
6.84249
6.84248
6.84246
6.84245
6.84244
6.84243
6.84243
6.84241
6.8424
6.84237
6.84235
6.84232
6.8423
6.84228
6.84227
6.84226
6.84226
6.84225
6.84224
6.84222
6.8422
6.84218
6.84216
6.84213
6.84211
6.84209
6.84208
6.84208
6.84206
6.84203
6.84196
6.84181
6.84142
6.8404
6.83784
6.83136
6.81459
6.77121
6.65967
6.37703
5.71512
4.50907
3.42739
3.06944
3.00924
3.00118
3.00015
3.00002
3
3
3
3
3
3
3
3
3
3
3
3
3
3
3
3
3
3
3
3
3
3
3
3
3
3
3
3
3
3
3
3
3
3
3
3
3
3
3
3
3
3
3
3
3
3
3
3
3
3
3
3
3
3
3
3
3
3
3
3
3
3
3
3
3
3
3
3
3
3
3
3
3
3
3
3
3
3
3
3
3
3
3
3
3
3
3
3
3
3
3
3
3
3
3
3
3
3
3
3
3
3
3
3
3
3
3
3
3
3
3
3
3
3
3
3
3
3
3
3
3
3
3
3
3
3
3
3
3
3
3
3
3
3
3
3
3
3
3
3
3
3
3
3
3
3
3
3
3
3
3
3
3
3
3
3
3
3
3
3
3
3
3
3
3
3
3
3
3
3
3
3
3
3
3
3
3
3
3
3
3
3
3
3
3
3
3
3
3
3
3
3
3
3
3
3
3
3
3
3
3
3
3
3
3
3
3
3
3
3
3
3
3
3
3
3
3
3
3
3
3
3
3
3
3
3
3
3
3
3
3
3
3
3
3
3
3
3
3
3
3
3
3
3
3
3
3
3
3
3
3
3
3
3
3
3
3
3
3
3
3
3
3
3
3
3
3
3
3
3
3
3
3
3
3
3
3
3
3
3
3
3
3
3
3
3
3
3
3
3
3
3
3
3
3
3
3
3
3
3
3
3
3
3
3
3
3
3
3
3
3
3
3
3
3
3
3
3
3
3
3
3
3
3
3
3
3
3
3
3
3
3
3
3
3
3
3
3
3
3
3
3
3
3
3
3
3
3
3
3
3
3
3
3
3
3
3
3
3
3
3
3
3
3
3
3
3
3
3
3
3
3
3
3
3
3
3
3
3
3
3
3
3
3
3
3
3
3
3
3
3
3
3
3
3
3
3
3
3
3
3
3
3
3
3
3
3
3
3
3
3
3
3
3
3
3
3
3
3
3
3
3
3
3
3
3
3
3
3
3
3
3
3
3
3
3
3
3
3
3
3
3
3
3
3
3
3
3
3
3
3
3
3
3
3
3
3
3
3
3
3
3
3
3
3
3
3
3
3
3
3
3
3
3
3
3
3
3
3
3
3
3
3
3
3
3
3
3
3
3
3
3
3
3
3
3
3
3
3
3
3
3
3
3
3
3
3
3
3
3
3
3
3
3
3
3
3
3
3
3
3
3
3
3
3
3
3
3
3
3
3
3
3
3
3
3
3
3
3
3
3
3
3
3
3
3
3
3
3
3
3
3
3
3
3
3
3
3
3
3
3
3
3
3
3
3
3
3
3
3
3
3
3
3
3
3
3
3
3
3
3
3
3
3
3
3
3
3
3
3
3
3
3
3
3
3
3
3
3
3
3
3
3
3
3
3
3
3
3
3
3
3
3
3
3
3
3
3
3
3
3
3
3
3
3
3
3
3
3
3
3
3
3
3
3
3
3
3
3
3
3
3
3
3
3
3
3
3
3
3
3
3
3
3
3
3
3
3
3
3
3
3
3
3
3
3
3
3
3
3
3
3
3
3
3
3
3
3
3
3
3
3
3
3
3
3
3
3
3
3
3
3
3
3
3
3
3
3
3
3
3
3
3
3
3
3
3
3
3
3
3
3
3
3
3
3
3
3
3
3
3
3
3
3
3
3
3
3
3
3
3
3
3
3
3
3
3
3
3
3
3
3
3
3
3
3
3
3
3
3
3
3
3
3
3
3
3
3
3
3
3
3
3
3
3
3
3
3
3
3
3
3
3
3
3
3
3
3
3
3
3
3
3
3
3
3
3
3
3
3
3
3
3
3
3
3
3
3
3
3
3
3
3
3
3
3
3
3
3
3
3
3
3
3
3
3
3
3
3
3
3
3
3
3
3
3
3
3
3
3
3
3
3
3
3
3
3
3
3
3
3
3
3
3
3
3
3
3
3
3
3
3
3
3
3
3
3
3
3
3
3
3
3
3
3
3
3
3
3
3
3
3
3
3
3
3
3
3
3
3
3
3
3
3
3
3
3
3
3
3
3
3
3
3
3
3
3
3
3
3
3
3
3
3
3
3
3
3
3
3
3
3
3
3
3
3
3
3
3
3
3
3
3
3
3
3
3
3
3
3
3
3
3
3
3
3
3
3
3
3
3
3
3
3
3
3
3
3
3
3
3
3
3
3
3
3
3
3
3
3
3
3
3
3
3
3
3
3
3
3
3
3
3
3
3
3
3
3
3
3
3
3
3
3
3
3
3
3
3
3
3
3
3
3
3
3
3
3
3
3
3
3
3
3
3
3
3
3
3
3
3
3
3
3
3
3
3
3
3
3
3
3
3
3
3
3
3
3
3
3
3
3
3
3
3
3
3
3
3
3
3
3
3
3
3
3
3
3
3
3
3
3
3
3
3
3
3
3
3
3
3
3
3
3
3
3
3
3
3
3
3
3
3
3
3
3
3
3
3
3
3
3
3
3
3
3
3
3
3
3
3
3
3
3
3
3
3
3
3
3
3
3
3
3
3
3
3
3
3
3
3
3
3
3
3
3
3
3
3
3
3
3
3
3
3
3
3
3
3
3
3
3
3
3
3
3
3
3
3
3
3
3
3
3
3
3
3
3
3
3
3
3
3
3
3
3
3
3
3
3
3
3
3
3
3
3
3
3
3
3
3
3
3
3
3
3
3
3
3
3
3
3
3
3
3
3
3
3
3
3
3
3
3
3
3
3
3
3
3
3
3
3
3
3
3
3
3
3
3
3
3
3
3
3
3
3
3
3
3
3
3
3
3
3
3
3
3
3
3
3
3
3
3
3
3
3
3
3
3
3
3
3
3
3
3
3
3
3
3
3
3
3
3
3
3
3
3
3
3
3
3
3
3
3
3
3
3
3
3
3
3
3
3
3
3
3
3
3
3
3
3
3
3
3
3
3
3
3
3
3
3
3
3
3
3
3
3
3
3
3
3
3
3
3
3
3
3
3
3
3
3
3
3
3
3
3
3
3
3
3
3
3
3
3
3
3
3
3
3
3
3
3
3
3
3
3
3
3
3
3
3
3
3
3
3
3
3
3
3
3
3
3
3
3
3
3
3
3
3
3
3
3
3
3
3
3
3
3
3
3
3
3
3
3
3
3
3
3
3
3
3
3
3
3
3
3
3
3
3
3
3
3
3
3
3
3
3
3
3
3
3
3
3
3
3
3
3
3
3
3
3
3
3
3
3
3
3
3
3
3
3
3
3
3
3
3
3
3
3
3
3
3
3
3
3
3
3
3
3
3
3
3
3
3
3
3
3
3
3
3
3
3
3
3
3
3
3
3
3
3
3
3
3
3
3
3
3
3
3
3
3
3
3
3
3
3
3
3
3
3
3
3
3
3
3
3
3
3
3
3
3
3
3
3
3
3
3
3
3
3
3
3
3
3
3
3
3
3
3
3
3
3
3
3
3
3
3
3
3
3
3
3
3
3
3
3
3
3
3
3
3
3
3
3
3
3
3
3
3
3
3
3
3
3
3
3
3
3
3
3
3
3
3
3
3
3
3
3
3
3
3
3
3
3
3
3
3
3
3
3
3
3
3
3
3
3
3
3
3
3
3
3
3
3
3
3
3
3
3
3
3
3
3
3
3
3
3
3
3
3
3
3
3
3
3
3
3
3
3
3
3
3
3
3
3
3
3
3
3
3
3
3
3
3
3
3
3
3
3
3
3
3
3
3
3
3
3
3
3
3
3
3
3
3
3
3
3
3
3
3
3
3
3
3
3
3
3
3
3
3
3
3
3
3
3
3
3
3
3
3
3
3
3
3
3
3
3
3
3
3
3
3
3
3
3
3
3
3
3
3
3
3
3
3
3
3
3
3
3
3
3
3
3
3
3
3
3
3
3
3
3
3
3
3
3
3
3
3
3
3
3
3
3
3
3
3
3
3
3
3
3
3
3
3
3
3
3
3
3
3
3
3
3
3
3
3
3
3
3
3
3
3
3
3
3
3
3
3
3
3
3
3
3
3
3
3
3
3
3
3
3
3
3
3
3
3
3
3
3
3
3
3
3
3
3
3
3
3
3
3
3
3
3
3
3
3
3
3
3
3
3
3
3
3
3
3
3
3
3
3
3
3
3
3
3
3
3
3
3
3
3
3
3
3
3
3
3
3
3
3
3
3
3
3
3
3
3
3
3
3
3
3
3
3
3
3
3
3
3
3
3
3
3
3
3
3
3
3
3
3
3
3
3
3
3
3
3
3
3
3
3
3
3
3
3
3
3
3
3
3
3
3
3
3
3
3
3
3
3
3
3
3
3
3
3
3
3
3
3
3
3
3
3
3
3
3
3
3
3
3
3
3
3
3
3
3
3
3
3
3
3
3
3
3
3
3
3
3
3
3
3
3
3
3
3
3
3
3
3
3
3
3
3
3
3
3
3
3
3
3
3
3
3
3
3
3
3
3
3
3
3
3
3
3
3
3
3
3
3
3
3
3
3
3
3
3
3
3
3
3
3
3
3
3
3
3
3
3
3
3
3
3
3
3
3
3
3
3
3
3
3
3
3
3
3
3
3
3
3
3
3
3
3
3
3
3
3
3
3
3
3
3
3
3
3
3
3
3
3
3
3
3
3
3
3
3
3
3
3
3
3
3
3
3
3
3
3
3
3
3
3
3
3
3
3
3
3
3
3
3
3
3
3
3
3
3
3
3
3
3
3
3
3
3
3
3
3
3
3
3
3
3
3
3
3
3
3
3
3
3
3
3
3
3
3
3
3
3
3
3
3
3
3
3
3
3
</DataArray>
<DataArray Name="hu" type="Float32" format="ascii">
0.000515353
0.000548261
0.000580097
0.000613423
0.000646609
0.000678689
0.00071136
0.000744424
0.000776431
0.000807387
0.000838551
0.000871115
0.000903114
0.000934076
0.00096504
0.000996431
0.0010287
0.00105967
0.00109076
0.00112453
0.0011576
0.00118982
0.00121898
0.0012519
0.00128921
0.00134034
0.00141201
0.00149582
0.00160204
0.00173384
0.00189628
0.00209053
0.00232767
0.00261427
0.00294933
0.00334988
0.00382106
0.00437504
0.00502246
0.00576973
0.00664271
0.00764995
0.00881038
0.0101487
0.0116795
0.0134225
0.015402
0.0176507
0.0202037
0.0230963
0.0263554
0.03002
0.0341364
0.0387443
0.0438925
0.0496375
0.0560221
0.0630978
0.0709274
0.0795716
0.0891047
0.0995847
0.111071
0.123644
0.137373
0.152321
0.168562
0.18617
0.205223
0.225795
0.247957
0.27178
0.297341
0.32472
0.353977
0.385174
0.418375
0.45364
0.491023
0.530573
0.572347
0.61639
0.662745
0.711448
0.762533
0.816018
0.871922
0.930272
0.991077
1.05435
1.12008
1.18828
1.25895
1.33206
1.40761
1.48557
1.56594
1.64867
1.73374
1.82113
1.91079
2.0027
2.09682
2.19309
2.29148
2.39195
2.49444
2.59892
2.70533
2.81364
2.92378
3.03571
3.14938
3.26474
3.38175
3.50033
3.62046
3.74209
3.86516
3.98963
4.11545
4.24258
4.37096
4.50056
4.63132
4.76321
4.89618
5.0302
5.16522
5.30121
5.43813
5.57594
5.71459
5.85406
5.99432
6.13533
6.27706
6.41947
6.56254
6.70624
6.85054
6.99542
7.14084
7.28677
7.4332
7.58011
7.72746
7.87523
8.02341
8.17196
8.32087
8.47012
8.6197
8.76957
8.91974
9.07019
9.22089
9.37182
9.52297
9.67432
9.82586
9.97759
10.1295
10.2815
10.4337
10.586
10.7384
10.891
11.0436
11.1963
11.349
11.5019
11.6548
11.8077
11.9607
12.1137
12.2667
12.4197
12.5727
12.7257
12.8787
13.0317
13.1846
13.3375
13.4904
13.6433
13.796
13.9488
14.1014
14.254
14.4065
14.559
14.7113
14.8636
15.0158
15.1679
15.3199
15.4717
15.6235
15.7751
15.9267
16.0781
16.2294
16.3805
16.5315
16.6824
16.8332
16.9838
17.1342
17.2846
17.4347
17.5847
17.7346
17.8843
18.0338
18.1832
18.3324
18.4815
18.6304
18.7791
18.9276
19.0759
19.2241
19.3721
19.5199
19.6675
19.815
19.9622
20.1093
20.2562
20.4029
20.5493
20.6956
20.8417
20.9876
21.1333
21.2788
21.4241
21.5692
21.7141
21.8588
22.0032
22.1475
22.2916
22.4354
22.579
22.7225
22.8657
23.0087
23.1514
23.294
23.4363
23.5785
23.7204
23.862
24.0035
24.1447
24.2857
24.4265
24.5671
24.7074
24.8476
24.9875
25.1271
25.2665
25.4057
25.5447
25.6835
25.822
25.9603
26.0983
26.2361
26.3737
26.5111
26.6482
26.7851
26.9217
27.0581
27.1943
27.3303
27.466
27.6014
27.7366
27.8716
28.0064
28.1409
28.2752
28.4092
28.543
28.6765
28.8098
28.9429
29.0757
29.2083
29.3406
29.4727
29.6046
29.7362
29.8675
29.9987
30.1295
30.2602
30.3905
30.5207
30.6505
30.7802
30.9096
31.0387
31.1676
31.2963
31.4247
31.5528
31.6807
31.8084
31.9358
32.063
32.1899
32.3166
32.443
32.5691
32.695
32.8207
32.9461
33.0713
33.1962
33.3208
33.4453
33.5694
33.6933
33.817
33.9404
34.0635
34.1864
34.309
34.4314
34.5536
34.6754
34.7971
34.9184
35.0396
35.1604
35.281
35.4014
35.5215
35.6413
35.7609
35.8803
35.9993
36.1182
36.2367
36.3551
36.4731
36.5909
36.7085
36.8257
36.9428
37.0596
37.1761
37.2923
37.4084
37.5241
37.6396
37.7548
37.8698
37.9845
38.099
38.2132
38.3271
38.4408
38.5542
38.6674
38.7803
38.893
39.0053
39.1175
39.2293
39.3409
39.4523
39.5634
39.6742
39.7848
39.8951
40.0051
40.1149
40.2244
40.3337
40.4427
40.5514
40.6599
40.7681
40.8761
40.9837
41.0912
41.1983
41.3052
41.4118
41.5182
41.6243
41.7302
41.8358
41.9411
42.0461
42.1509
42.2554
42.3597
42.4636
42.5674
42.6708
42.774
42.8769
42.9796
43.0819
43.184
43.2859
43.3875
43.4888
43.5898
43.6906
43.7911
43.8913
43.9912
44.0909
44.1903
44.2894
44.3883
44.4869
44.5852
44.6832
44.781
44.8785
44.9757
45.0726
45.1693
45.2656
45.3617
45.4576
45.5531
45.6483
45.7433
45.838
45.9324
46.0265
46.1203
46.2139
46.3071
46.4001
46.4928
46.5852
46.6772
46.7691
46.8606
46.9518
47.0427
47.1333
47.2236
47.3136
47.4033
47.4927
47.5818
47.6706
47.759
47.8472
47.935
48.0225
48.1097
48.1966
48.2831
48.3694
48.4552
48.5408
48.626
48.7109
48.7954
48.8796
48.9634
49.0468
49.1299
49.2127
49.295
49.377
49.4586
49.5398
49.6206
49.701
49.781
49.8606
49.9397
50.0184
50.0967
50.1745
50.2519
50.3288
50.4052
50.4811
50.5565
50.6314
50.7057
50.7795
50.8528
50.9254
50.9975
51.0689
51.1397
51.2098
51.2792
51.348
51.416
51.4832
51.5496
51.6152
51.68
51.7439
51.8069
51.8689
51.9299
51.9899
52.0488
52.1066
52.1632
52.2186
52.2728
52.3256
52.3771
52.4272
52.4758
52.523
52.5685
52.6125
52.6548
52.6954
52.7343
52.7715
52.8068
52.8403
52.872
52.9019
52.9299
52.956
52.9804
53.0029
53.0237
53.0428
53.0602
53.076
53.0903
53.1031
53.1146
53.1248
53.1339
53.1418
53.1488
53.1549
53.1601
53.1647
53.1686
53.172
53.1749
53.1774
53.1796
53.1815
53.1831
53.1845
53.1857
53.1868